#3d LJ, 2 fases, NVE, se replica la caja 3 veces y se borran los atomos de las 2 cajas extremas.
# Tomado del TDM2014, impartido por el Dr. Rivera de la UMSNH

units lj
atom_style atomic

lattice fcc 0.8442
Lattice spacing in x,y,z = 1.6795962 1.6795962 1.6795962
region box block 0 10 0 10 0 10
create_box 1 box
Created orthogonal box = (0 0 0) to (16.795962 16.795962 16.795962)
  1 by 2 by 2 MPI processor grid
create_atoms 1 box
Created 4000 atoms
  using lattice units in orthogonal box = (0 0 0) to (16.795962 16.795962 16.795962)
  create_atoms CPU = 0.003 seconds
replicate 3 1 1
Replication is creating a 3x1x1 = 3 times larger system...
  orthogonal box = (0 0 0) to (50.387886 16.795962 16.795962)
  4 by 1 by 1 MPI processor grid
  12000 atoms
  replicate CPU = 0.005 seconds
group 2 id <> 1 4000
4000 atoms in group 2
group 2 id <> 8001 12000
8000 atoms in group 2
delete_atoms group 2
Deleted 8000 atoms, new total = 4000

mass 1 1.0
neigh_modify delay 5

velocity all create 0.7 87287

pair_style lj/cut 2.5
pair_coeff 1 1 1.0 1.0

variable T equal .7

fix 1 all nve
compute tempi all temp
#fix 1 all nvt temp 3.0 3.0 10.0
#fix 1 all npt temp 3.0 3.0 10.0 iso 6.0 6.5 100.0


#fix_modify 1 temp tempi

compute 7 all pressure tempi
fix 30 all ave/time 10 10 100 c_tempi file tei_${T}.out
fix 30 all ave/time 10 10 100 c_tempi file tei_0.7.out
fix 31 all ave/time 10 10 100 c_7 file prico_${T}.out
fix 31 all ave/time 10 10 100 c_7 file prico_0.7.out

# compute den all chunk/atom bin/1d y center 0.1 units box
# fix 33 all ave/chunk 10 10 100 den density/mass file densityprof.out

#fix 33 all ave/spatial 10 10 100 y center 1.0 x lower upper density/mass file densityprofile.out

dump id all atom 100 dump_${T}.melt
dump id all atom 100 dump_0.7.melt
# thermo_style multi

# fix 2 all temp/rescale 10 3.0 3.0 0.05 1.0

# fix_modify 2 temp tempi

# fix 30 all ave/time 10 10 100 c_tempi file tei.out

thermo_style custom step density pe ke etotal

thermo 50
timestep 0.005

# run 50000
fix 32 all ave/time 10 10 100 c_7[1] c_7[2] c_7[3] c_7[4] c_7[5] c_7[6] file ptensor_${T}.out
fix 32 all ave/time 10 10 100 c_7[1] c_7[2] c_7[3] c_7[4] c_7[5] c_7[6] file ptensor_0.7.out

run 20000
Generated 0 of 0 mixed pair_coeff terms from geometric mixing rule
Neighbor list info ...
  update: every = 1 steps, delay = 5 steps, check = yes
  max neighbors/atom: 2000, page size: 100000
  master list distance cutoff = 2.8
  ghost atom cutoff = 2.8
  binsize = 1.4, bins = 36 12 12
  1 neighbor lists, perpetual/occasional/extra = 1 0 0
  (1) pair lj/cut, perpetual
      attributes: half, newton on
      pair build: half/bin/atomonly/newton
      stencil: half/bin/3d
      bin: standard
Per MPI rank memory allocation (min/avg/max) = 3.829 | 3.951 | 4.075 Mbytes
   Step        Density         PotEng         KinEng         TotEng    
         0   0.2814        -6.5223221      1.0497375     -5.4725846    
        50   0.2814        -6.0196046      0.53886826    -5.4807363    
       100   0.2814        -6.1505541      0.66233964    -5.4882144    
       150   0.2814        -6.2559592      0.75954615    -5.4964131    
       200   0.2814        -6.3421926      0.83710901    -5.5050836    
       250   0.2814        -6.4138189      0.89909215    -5.5147267    
       300   0.2814        -6.4605533      0.93724977    -5.5233035    
       350   0.2814        -6.4937257      0.96548637    -5.5282393    
       400   0.2814        -6.495264       0.96286786    -5.5323961    
       450   0.2814        -6.5013449      0.96643719    -5.5349077    
       500   0.2814        -6.4879073      0.95309508    -5.5348123    
       550   0.2814        -6.4827704      0.95111267    -5.5316577    
       600   0.2814        -6.472676       0.94630332    -5.5263727    
       650   0.2814        -6.4331221      0.91216083    -5.5209612    
       700   0.2814        -6.3787104      0.86642415    -5.5122862    
       750   0.2814        -6.3037924      0.80000166    -5.5037908    
       800   0.2814        -6.2365709      0.73978501    -5.4967859    
       850   0.2814        -6.1744543      0.68269888    -5.4917554    
       900   0.2814        -6.1404683      0.65107211    -5.4893962    
       950   0.2814        -6.1446501      0.6556581     -5.488992     
      1000   0.2814        -6.1713793      0.6795512     -5.4918281    
      1050   0.2814        -6.22436        0.72861649    -5.4957435    
      1100   0.2814        -6.2721252      0.77057782    -5.5015474    
      1150   0.2814        -6.3465113      0.83752205    -5.5089892    
      1200   0.2814        -6.4132884      0.89577606    -5.5175124    
      1250   0.2814        -6.4308509      0.90624916    -5.5246018    
      1300   0.2814        -6.4531387      0.92435527    -5.5287835    
      1350   0.2814        -6.4759987      0.94387214    -5.5321266    
      1400   0.2814        -6.4684077      0.93562903    -5.5327787    
      1450   0.2814        -6.4643518      0.93385562    -5.5304962    
      1500   0.2814        -6.4631975      0.93571011    -5.5274874    
      1550   0.2814        -6.4437685      0.92074363    -5.5230248    
      1600   0.2814        -6.3878528      0.87239224    -5.5154606    
      1650   0.2814        -6.332985       0.82488858    -5.5080964    
      1700   0.2814        -6.2758484      0.77383064    -5.5020177    
      1750   0.2814        -6.2216884      0.72421193    -5.4974764    
      1800   0.2814        -6.2047461      0.70935818    -5.4953879    
      1850   0.2814        -6.1940032      0.69783463    -5.4961686    
      1900   0.2814        -6.2152312      0.7176427     -5.4975884    
      1950   0.2814        -6.2545098      0.75424481    -5.500265     
      2000   0.2814        -6.3001405      0.79574297    -5.5043976    
      2050   0.2814        -6.3452495      0.8351637     -5.5100858    
      2100   0.2814        -6.393418       0.87716571    -5.5162523    
      2150   0.2814        -6.4195382      0.89745916    -5.5220791    
      2200   0.2814        -6.4444177      0.91741471    -5.527003     
      2250   0.2814        -6.4340663      0.90386237    -5.530204     
      2300   0.2814        -6.4485266      0.91928391    -5.5292427    
      2350   0.2814        -6.4503475      0.92351123    -5.5268363    
      2400   0.2814        -6.4231684      0.89978742    -5.523381     
      2450   0.2814        -6.402161       0.88357924    -5.5185818    
      2500   0.2814        -6.3678524      0.85509873    -5.5127537    
      2550   0.2814        -6.3254522      0.81831244    -5.5071398    
      2600   0.2814        -6.2834795      0.78067682    -5.5028026    
      2650   0.2814        -6.2532247      0.75190453    -5.5013202    
      2700   0.2814        -6.2373336      0.736274      -5.5010596    
      2750   0.2814        -6.2522718      0.75050232    -5.5017695    
      2800   0.2814        -6.2648375      0.7625045     -5.502333     
      2850   0.2814        -6.2984922      0.7928406     -5.5056516    
      2900   0.2814        -6.3428617      0.83266174    -5.5102       
      2950   0.2814        -6.3819293      0.8665322     -5.5153971    
      3000   0.2814        -6.4121298      0.89136355    -5.5207662    
      3050   0.2814        -6.4276157      0.90276121    -5.5248545    
      3100   0.2814        -6.4207094      0.89478355    -5.5259258    
      3150   0.2814        -6.4323881      0.90565752    -5.5267306    
      3200   0.2814        -6.4263175      0.90173177    -5.5245857    
      3250   0.2814        -6.4126752      0.89170101    -5.5209742    
      3300   0.2814        -6.379923       0.86340475    -5.5165183    
      3350   0.2814        -6.3541143      0.84261629    -5.511498     
      3400   0.2814        -6.3205201      0.81342909    -5.507091     
      3450   0.2814        -6.2835601      0.77943416    -5.5041259    
      3500   0.2814        -6.2649926      0.76284035    -5.5021523    
      3550   0.2814        -6.2549754      0.75382195    -5.5011535    
      3600   0.2814        -6.2595157      0.75814557    -5.5013701    
      3650   0.2814        -6.2738004      0.7705795     -5.5032209    
      3700   0.2814        -6.3171422      0.81048673    -5.5066555    
      3750   0.2814        -6.3320343      0.82216891    -5.5098654    
      3800   0.2814        -6.377791       0.86288007    -5.5149109    
      3850   0.2814        -6.3924003      0.87407165    -5.5183286    
      3900   0.2814        -6.395249       0.87271771    -5.5225313    
      3950   0.2814        -6.4195522      0.89543697    -5.5241152    
      4000   0.2814        -6.4114182      0.88718088    -5.5242373    
      4050   0.2814        -6.418646       0.89562206    -5.523024     
      4100   0.2814        -6.4089623      0.88874187    -5.5202204    
      4150   0.2814        -6.3736114      0.85732996    -5.5162814    
      4200   0.2814        -6.3425187      0.83070488    -5.5118138    
      4250   0.2814        -6.3147538      0.8065138     -5.50824      
      4300   0.2814        -6.294318       0.78840017    -5.5059179    
      4350   0.2814        -6.2823537      0.77712467    -5.505229     
      4400   0.2814        -6.2819652      0.7779804     -5.5039848    
      4450   0.2814        -6.2889712      0.78455589    -5.5044154    
      4500   0.2814        -6.2924843      0.78719196    -5.5052923    
      4550   0.2814        -6.3149131      0.80666683    -5.5082463    
      4600   0.2814        -6.3421134      0.83144507    -5.5106683    
      4650   0.2814        -6.3585053      0.84367099    -5.5148343    
      4700   0.2814        -6.3725539      0.85400744    -5.5185464    
      4750   0.2814        -6.3964697      0.87639038    -5.5200793    
      4800   0.2814        -6.4048868      0.88371115    -5.5211756    
      4850   0.2814        -6.4059657      0.88439965    -5.521566     
      4900   0.2814        -6.3891387      0.86911953    -5.5200192    
      4950   0.2814        -6.3747297      0.85696555    -5.5177641    
      5000   0.2814        -6.3643518      0.8491707     -5.5151811    
      5050   0.2814        -6.3539201      0.84294642    -5.5109737    
      5100   0.2814        -6.3057926      0.79815935    -5.5076333    
      5150   0.2814        -6.2914958      0.78637631    -5.5051195    
      5200   0.2814        -6.2866695      0.78194449    -5.504725     
      5250   0.2814        -6.2879785      0.78356998    -5.5044085    
      5300   0.2814        -6.2932387      0.78721519    -5.5060236    
      5350   0.2814        -6.2993647      0.79185452    -5.5075102    
      5400   0.2814        -6.3386846      0.82915457    -5.50953      
      5450   0.2814        -6.3466578      0.8345432     -5.5121146    
      5500   0.2814        -6.3483408      0.83341737    -5.5149234    
      5550   0.2814        -6.3682157      0.85120671    -5.517009     
      5600   0.2814        -6.3916365      0.87195484    -5.5196817    
      5650   0.2814        -6.3870993      0.86785381    -5.5192455    
      5700   0.2814        -6.3894397      0.87035964    -5.5190801    
      5750   0.2814        -6.3693146      0.85139177    -5.5179229    
      5800   0.2814        -6.3610109      0.84650568    -5.5145052    
      5850   0.2814        -6.3472236      0.8353313     -5.5118923    
      5900   0.2814        -6.3228665      0.81346178    -5.5094047    
      5950   0.2814        -6.3103445      0.80271863    -5.5076259    
      6000   0.2814        -6.2997226      0.79397835    -5.5057443    
      6050   0.2814        -6.2848885      0.77907869    -5.5058098    
      6100   0.2814        -6.2922095      0.78635975    -5.5058497    
      6150   0.2814        -6.3033881      0.79692814    -5.5064599    
      6200   0.2814        -6.3352101      0.82597114    -5.509239     
      6250   0.2814        -6.3299632      0.81789586    -5.5120673    
      6300   0.2814        -6.3614763      0.84755552    -5.5139208    
      6350   0.2814        -6.3737322      0.85769254    -5.5160396    
      6400   0.2814        -6.3944956      0.87585666    -5.518639     
      6450   0.2814        -6.3923223      0.87346264    -5.5188596    
      6500   0.2814        -6.3900142      0.87049102    -5.5195232    
      6550   0.2814        -6.3971551      0.87890491    -5.5182502    
      6600   0.2814        -6.3607315      0.84388055    -5.516851     
      6650   0.2814        -6.3575893      0.84345236    -5.5141369    
      6700   0.2814        -6.3425481      0.83056759    -5.5119805    
      6750   0.2814        -6.3535943      0.84382632    -5.5097679    
      6800   0.2814        -6.3133014      0.80519092    -5.5081105    
      6850   0.2814        -6.3034074      0.79647577    -5.5069317    
      6900   0.2814        -6.3031908      0.79674189    -5.5064489    
      6950   0.2814        -6.3003717      0.79367665    -5.5066951    
      7000   0.2814        -6.300693       0.79258756    -5.5081055    
      7050   0.2814        -6.3133838      0.80398825    -5.5093956    
      7100   0.2814        -6.337375       0.82640363    -5.5109714    
      7150   0.2814        -6.3360873      0.82307172    -5.5130155    
      7200   0.2814        -6.3629957      0.84816149    -5.5148342    
      7250   0.2814        -6.3522601      0.83587782    -5.5163823    
      7300   0.2814        -6.3791008      0.86210575    -5.5169951    
      7350   0.2814        -6.3721665      0.85576298    -5.5164035    
      7400   0.2814        -6.3697383      0.85362416    -5.5161141    
      7450   0.2814        -6.3624536      0.84701418    -5.5154394    
      7500   0.2814        -6.3527095      0.83976155    -5.512948     
      7550   0.2814        -6.3552709      0.84416752    -5.5111033    
      7600   0.2814        -6.3220035      0.81217037    -5.5098332    
      7650   0.2814        -6.3176493      0.80892198    -5.5087273    
      7700   0.2814        -6.3121366      0.80376107    -5.5083755    
      7750   0.2814        -6.3227405      0.81448507    -5.5082554    
      7800   0.2814        -6.3098905      0.80117143    -5.5087191    
      7850   0.2814        -6.3257127      0.81687665    -5.508836     
      7900   0.2814        -6.3275183      0.8168862     -5.5106321    
      7950   0.2814        -6.3336216      0.82191433    -5.5117073    
      8000   0.2814        -6.3480197      0.83449562    -5.513524     
      8050   0.2814        -6.3568625      0.84253081    -5.5143317    
      8100   0.2814        -6.3567971      0.84121367    -5.5155834    
      8150   0.2814        -6.3661664      0.85007612    -5.5160903    
      8200   0.2814        -6.3710102      0.85470331    -5.5163069    
      8250   0.2814        -6.3656752      0.85126993    -5.5144053    
      8300   0.2814        -6.3532251      0.83919333    -5.5140318    
      8350   0.2814        -6.352669       0.84020557    -5.5124635    
      8400   0.2814        -6.3278577      0.81673978    -5.5111179    
      8450   0.2814        -6.3260334      0.81621172    -5.5098216    
      8500   0.2814        -6.314661       0.8058994     -5.5087616    
      8550   0.2814        -6.3247994      0.81776053    -5.5070388    
      8600   0.2814        -6.308124       0.80004433    -5.5080797    
      8650   0.2814        -6.3121337      0.80356354    -5.5085702    
      8700   0.2814        -6.3272023      0.81750364    -5.5096987    
      8750   0.2814        -6.3314533      0.82054506    -5.5109082    
      8800   0.2814        -6.3473011      0.83445681    -5.5128443    
      8850   0.2814        -6.358619       0.84549837    -5.5131206    
      8900   0.2814        -6.3583924      0.84320041    -5.515192     
      8950   0.2814        -6.3478186      0.83109927    -5.5167193    
      9000   0.2814        -6.3607689      0.84488531    -5.5158836    
      9050   0.2814        -6.3629717      0.84797864    -5.514993     
      9100   0.2814        -6.36361        0.84971794    -5.5138921    
      9150   0.2814        -6.3437493      0.83041574    -5.5133335    
      9200   0.2814        -6.3456265      0.83429508    -5.5113314    
      9250   0.2814        -6.3282539      0.81742511    -5.5108288    
      9300   0.2814        -6.3222324      0.81244522    -5.5097871    
      9350   0.2814        -6.3274493      0.81861315    -5.5088361    
      9400   0.2814        -6.3097516      0.80113032    -5.5086213    
      9450   0.2814        -6.30596        0.79728962    -5.5086704    
      9500   0.2814        -6.3125524      0.80257511    -5.5099773    
      9550   0.2814        -6.3345142      0.82426133    -5.5102529    
      9600   0.2814        -6.3380247      0.82610583    -5.5119189    
      9650   0.2814        -6.34494        0.83161852    -5.5133215    
      9700   0.2814        -6.3605704      0.84594073    -5.5146297    
      9750   0.2814        -6.363259       0.84845989    -5.5147991    
      9800   0.2814        -6.3654491      0.85007021    -5.5153789    
      9850   0.2814        -6.3657005      0.84969303    -5.5160074    
      9900   0.2814        -6.3640134      0.8495563     -5.5144571    
      9950   0.2814        -6.3481154      0.83505575    -5.5130597    
     10000   0.2814        -6.3514452      0.8389408     -5.5125044    
     10050   0.2814        -6.3272232      0.81649922    -5.5107239    
     10100   0.2814        -6.3250683      0.81418261    -5.5108857    
     10150   0.2814        -6.328282       0.81793833    -5.5103437    
     10200   0.2814        -6.3282155      0.81843897    -5.5097765    
     10250   0.2814        -6.3134155      0.80372322    -5.5096923    
     10300   0.2814        -6.3240745      0.81369271    -5.5103818    
     10350   0.2814        -6.3325199      0.82110766    -5.5114122    
     10400   0.2814        -6.3309711      0.81845085    -5.5125203    
     10450   0.2814        -6.3462396      0.83284857    -5.5133911    
     10500   0.2814        -6.3500324      0.83536752    -5.5146649    
     10550   0.2814        -6.3691275      0.85404824    -5.5150792    
     10600   0.2814        -6.3458486      0.83071315    -5.5151354    
     10650   0.2814        -6.3485573      0.83379066    -5.5147666    
     10700   0.2814        -6.3474487      0.83330767    -5.514141     
     10750   0.2814        -6.3444492      0.8316555     -5.5127937    
     10800   0.2814        -6.3479849      0.83609547    -5.5118895    
     10850   0.2814        -6.3228623      0.81157596    -5.5112864    
     10900   0.2814        -6.3146662      0.80468571    -5.5099805    
     10950   0.2814        -6.3288411      0.81938192    -5.5094592    
     11000   0.2814        -6.2999017      0.78944062    -5.5104611    
     11050   0.2814        -6.3253968      0.81473453    -5.5106622    
     11100   0.2814        -6.3165434      0.80635559    -5.5101878    
     11150   0.2814        -6.3364342      0.82683961    -5.5095946    
     11200   0.2814        -6.3456864      0.83424679    -5.5114396    
     11250   0.2814        -6.3418154      0.8294161     -5.5123993    
     11300   0.2814        -6.3548101      0.84239674    -5.5124133    
     11350   0.2814        -6.346931       0.83367716    -5.5132538    
     11400   0.2814        -6.3486756      0.83481238    -5.5138632    
     11450   0.2814        -6.344433       0.83053232    -5.5139007    
     11500   0.2814        -6.3505877      0.83659007    -5.5139976    
     11550   0.2814        -6.3477778      0.83460413    -5.5131736    
     11600   0.2814        -6.339854       0.82764404    -5.5122099    
     11650   0.2814        -6.3291239      0.81720032    -5.5119235    
     11700   0.2814        -6.3340788      0.82246253    -5.5116162    
     11750   0.2814        -6.3287717      0.81786515    -5.5109066    
     11800   0.2814        -6.3281756      0.81772621    -5.5104494    
     11850   0.2814        -6.3262539      0.81631029    -5.5099436    
     11900   0.2814        -6.3282185      0.81814186    -5.5100766    
     11950   0.2814        -6.3190361      0.80901394    -5.5100221    
     12000   0.2814        -6.3351947      0.82439452    -5.5108002    
     12050   0.2814        -6.3487864      0.83750961    -5.5112768    
     12100   0.2814        -6.3289721      0.81651777    -5.5124543    
     12150   0.2814        -6.3507164      0.83859929    -5.5121171    
     12200   0.2814        -6.3554199      0.84208173    -5.5133382    
     12250   0.2814        -6.3501566      0.83655719    -5.5135994    
     12300   0.2814        -6.361286       0.84758944    -5.5136966    
     12350   0.2814        -6.3507527      0.83644883    -5.5143039    
     12400   0.2814        -6.3297376      0.81631977    -5.5134179    
     12450   0.2814        -6.3431989      0.83146935    -5.5117296    
     12500   0.2814        -6.3192486      0.80804966    -5.5111989    
     12550   0.2814        -6.3232417      0.81211515    -5.5111266    
     12600   0.2814        -6.325226       0.81442915    -5.5107968    
     12650   0.2814        -6.3261227      0.81642901    -5.5096936    
     12700   0.2814        -6.3367383      0.82665127    -5.5100871    
     12750   0.2814        -6.3271882      0.81791341    -5.5092748    
     12800   0.2814        -6.3282882      0.81831988    -5.5099683    
     12850   0.2814        -6.3267907      0.81557598    -5.5112148    
     12900   0.2814        -6.3309286      0.81906571    -5.5118629    
     12950   0.2814        -6.3407372      0.82837869    -5.5123585    
     13000   0.2814        -6.3311467      0.81828195    -5.5128647    
     13050   0.2814        -6.3415308      0.82774309    -5.5137877    
     13100   0.2814        -6.3347379      0.82066439    -5.5140735    
     13150   0.2814        -6.3542372      0.84014718    -5.51409      
     13200   0.2814        -6.347253       0.83348513    -5.5137679    
     13250   0.2814        -6.3517452      0.83796372    -5.5137815    
     13300   0.2814        -6.3399345      0.82693212    -5.5130024    
     13350   0.2814        -6.3327957      0.82015258    -5.5126431    
     13400   0.2814        -6.3377771      0.82515758    -5.5126195    
     13450   0.2814        -6.3252987      0.81478911    -5.5105096    
     13500   0.2814        -6.3249704      0.81449959    -5.5104709    
     13550   0.2814        -6.3358863      0.8245728     -5.5113135    
     13600   0.2814        -6.3376588      0.82681052    -5.5108483    
     13650   0.2814        -6.3412932      0.83032325    -5.5109699    
     13700   0.2814        -6.3387584      0.82611025    -5.5126481    
     13750   0.2814        -6.347005       0.83474738    -5.5122576    
     13800   0.2814        -6.3415739      0.82878266    -5.5127912    
     13850   0.2814        -6.3455093      0.83234502    -5.5131642    
     13900   0.2814        -6.3425908      0.82891999    -5.5136708    
     13950   0.2814        -6.3428444      0.82856708    -5.5142773    
     14000   0.2814        -6.3584143      0.8440273     -5.514387     
     14050   0.2814        -6.354747       0.84067964    -5.5140674    
     14100   0.2814        -6.3549198      0.84206797    -5.5128518    
     14150   0.2814        -6.3372491      0.82563037    -5.5116188    
     14200   0.2814        -6.3320407      0.82034754    -5.5116931    
     14250   0.2814        -6.3390334      0.82770408    -5.5113293    
     14300   0.2814        -6.3388093      0.8273089     -5.5115004    
     14350   0.2814        -6.3301681      0.81889304    -5.511275     
     14400   0.2814        -6.3344334      0.82210797    -5.5123254    
     14450   0.2814        -6.3380383      0.82644472    -5.5115936    
     14500   0.2814        -6.3415666      0.8287769     -5.5127897    
     14550   0.2814        -6.3500876      0.83759036    -5.5124973    
     14600   0.2814        -6.3535692      0.84045548    -5.5131137    
     14650   0.2814        -6.3490395      0.83514099    -5.5138985    
     14700   0.2814        -6.3496394      0.83591061    -5.5137288    
     14750   0.2814        -6.3493103      0.83597667    -5.5133336    
     14800   0.2814        -6.3511221      0.83776122    -5.5133608    
     14850   0.2814        -6.3563366      0.84384261    -5.512494     
     14900   0.2814        -6.3502601      0.83828266    -5.5119775    
     14950   0.2814        -6.3524658      0.83974921    -5.5127166    
     15000   0.2814        -6.3559614      0.84445085    -5.5115105    
     15050   0.2814        -6.3284518      0.81703241    -5.5114194    
     15100   0.2814        -6.3461013      0.83465286    -5.5114485    
     15150   0.2814        -6.346233       0.83459891    -5.511634     
     15200   0.2814        -6.3341321      0.82155923    -5.5125728    
     15250   0.2814        -6.3343827      0.82244836    -5.5119343    
     15300   0.2814        -6.353136       0.8415071     -5.5116289    
     15350   0.2814        -6.3275667      0.81640016    -5.5111665    
     15400   0.2814        -6.3324004      0.82046818    -5.5119322    
     15450   0.2814        -6.3505544      0.83803379    -5.5125206    
     15500   0.2814        -6.3564107      0.84330897    -5.5131017    
     15550   0.2814        -6.3469337      0.83357375    -5.51336      
     15600   0.2814        -6.3362172      0.82336475    -5.5128524    
     15650   0.2814        -6.3496712      0.83657844    -5.5130928    
     15700   0.2814        -6.343826       0.83034116    -5.5134848    
     15750   0.2814        -6.3434442      0.83024483    -5.5131994    
     15800   0.2814        -6.3464024      0.83244589    -5.5139565    
     15850   0.2814        -6.3440622      0.83130846    -5.5127538    
     15900   0.2814        -6.3515129      0.83904641    -5.5124665    
     15950   0.2814        -6.3374985      0.82506613    -5.5124323    
     16000   0.2814        -6.3437448      0.83103884    -5.5127059    
     16050   0.2814        -6.3403369      0.82746921    -5.5128677    
     16100   0.2814        -6.3465919      0.83443506    -5.5121568    
     16150   0.2814        -6.3338354      0.82195987    -5.5118755    
     16200   0.2814        -6.3451868      0.8344179     -5.5107689    
     16250   0.2814        -6.3338998      0.82168472    -5.5122151    
     16300   0.2814        -6.3567187      0.84518804    -5.5115306    
     16350   0.2814        -6.3364692      0.82451344    -5.5119558    
     16400   0.2814        -6.3467025      0.8348804     -5.5118221    
     16450   0.2814        -6.3459004      0.83374267    -5.5121577    
     16500   0.2814        -6.3244437      0.81216232    -5.5122814    
     16550   0.2814        -6.3227947      0.80965371    -5.513141     
     16600   0.2814        -6.3339952      0.82089784    -5.5130974    
     16650   0.2814        -6.3508024      0.83728752    -5.5135149    
     16700   0.2814        -6.3555712      0.84178034    -5.5137908    
     16750   0.2814        -6.3500704      0.83595222    -5.5141182    
     16800   0.2814        -6.3430473      0.83001548    -5.5130319    
     16850   0.2814        -6.3522892      0.83902059    -5.5132686    
     16900   0.2814        -6.3419098      0.82918744    -5.5127223    
     16950   0.2814        -6.3342091      0.82172456    -5.5124845    
     17000   0.2814        -6.3463857      0.83488609    -5.5114996    
     17050   0.2814        -6.3460068      0.833748      -5.5122588    
     17100   0.2814        -6.3407527      0.82937454    -5.5113781    
     17150   0.2814        -6.3376059      0.82568128    -5.5119246    
     17200   0.2814        -6.3243174      0.81243436    -5.511883     
     17250   0.2814        -6.3256947      0.81400087    -5.5116938    
     17300   0.2814        -6.3267748      0.81478312    -5.5119917    
     17350   0.2814        -6.3443495      0.83231307    -5.5120364    
     17400   0.2814        -6.3312559      0.81993902    -5.5113169    
     17450   0.2814        -6.3325427      0.82052177    -5.5120209    
     17500   0.2814        -6.3434278      0.83099102    -5.5124367    
     17550   0.2814        -6.3415039      0.82920544    -5.5122984    
     17600   0.2814        -6.3369479      0.82379366    -5.5131543    
     17650   0.2814        -6.341549       0.82911863    -5.5124303    
     17700   0.2814        -6.3463986      0.83417061    -5.512228     
     17750   0.2814        -6.3337289      0.82208293    -5.511646     
     17800   0.2814        -6.3394282      0.82739663    -5.5120316    
     17850   0.2814        -6.3449845      0.83426475    -5.5107197    
     17900   0.2814        -6.343971       0.83216649    -5.5118045    
     17950   0.2814        -6.3448863      0.83352677    -5.5113595    
     18000   0.2814        -6.3320948      0.82107308    -5.5110217    
     18050   0.2814        -6.3330131      0.82134031    -5.5116727    
     18100   0.2814        -6.3421438      0.83005206    -5.5120917    
     18150   0.2814        -6.346057       0.83394456    -5.5121125    
     18200   0.2814        -6.3484687      0.83503136    -5.5134373    
     18250   0.2814        -6.3362764      0.82349359    -5.5127828    
     18300   0.2814        -6.357534       0.8448379     -5.5126961    
     18350   0.2814        -6.3376407      0.8254134     -5.5122273    
     18400   0.2814        -6.3359306      0.8230594     -5.5128713    
     18450   0.2814        -6.3485695      0.83596121    -5.5126083    
     18500   0.2814        -6.3500683      0.83800748    -5.5120608    
     18550   0.2814        -6.3445861      0.83288636    -5.5116998    
     18600   0.2814        -6.3426074      0.83076716    -5.5118403    
     18650   0.2814        -6.3433864      0.8326954     -5.510691     
     18700   0.2814        -6.3335104      0.82192448    -5.5115859    
     18750   0.2814        -6.3354751      0.82419353    -5.5112816    
     18800   0.2814        -6.3386064      0.82717609    -5.5114303    
     18850   0.2814        -6.3400843      0.82816398    -5.5119204    
     18900   0.2814        -6.3265218      0.81414641    -5.5123754    
     18950   0.2814        -6.3390087      0.82702353    -5.5119852    
     19000   0.2814        -6.3593062      0.84661342    -5.5126928    
     19050   0.2814        -6.3449544      0.83181083    -5.5131436    
     19100   0.2814        -6.3465899      0.83354301    -5.5130468    
     19150   0.2814        -6.3382714      0.82558899    -5.5126825    
     19200   0.2814        -6.3345125      0.82168379    -5.5128287    
     19250   0.2814        -6.336771       0.82395078    -5.5128202    
     19300   0.2814        -6.348014       0.83561094    -5.5124031    
     19350   0.2814        -6.3330018      0.81986157    -5.5131402    
     19400   0.2814        -6.3370908      0.8246325     -5.5124583    
     19450   0.2814        -6.3375175      0.82538384    -5.5121337    
     19500   0.2814        -6.3422606      0.83055714    -5.5117035    
     19550   0.2814        -6.3389531      0.82655677    -5.5123964    
     19600   0.2814        -6.3387333      0.82770555    -5.5110278    
     19650   0.2814        -6.3390656      0.82717101    -5.5118946    
     19700   0.2814        -6.3294661      0.81800226    -5.5114638    
     19750   0.2814        -6.3333777      0.82176049    -5.5116172    
     19800   0.2814        -6.3393344      0.82794228    -5.5113921    
     19850   0.2814        -6.3431384      0.83060172    -5.5125366    
     19900   0.2814        -6.346518       0.83441861    -5.5120994    
     19950   0.2814        -6.3422621      0.82985444    -5.5124077    
     20000   0.2814        -6.3443861      0.83142349    -5.5129626    
Loop time of 79.4718 on 8 procs for 20000 steps with 4000 atoms

Performance: 108717.767 tau/day, 251.661 timesteps/s, 1.007 Matom-step/s
99.2% CPU use with 4 MPI tasks x 2 OpenMP threads

MPI task timing breakdown:
Section |  min time  |  avg time  |  max time  |%varavg| %total
---------------------------------------------------------------
Pair    | 0.022274   | 24.734     | 53.034     | 499.5 | 31.12
Neigh   | 0.023315   | 7.4924     | 15.896     | 273.9 |  9.43
Comm    | 6.5512     | 22.504     | 38.13      | 258.4 | 28.32
Output  | 1.0937     | 1.5747     | 1.8415     |  24.0 |  1.98
Modify  | 1.4639     | 6.6471     | 12.876     | 201.2 |  8.36
Other   |            | 16.52      |            |       | 20.79

Nlocal:           1000 ave        2122 max           2 min
Histogram: 2 0 0 0 0 0 0 0 1 1
Nghost:        1492.75 ave        3078 max           1 min
Histogram: 2 0 0 0 0 0 0 0 0 2
Neighs:          37911 ave       81888 max           0 min
Histogram: 2 0 0 0 0 0 0 0 1 1

Total # of neighbors = 151644
Ave neighs/atom = 37.911
Neighbor list builds = 2068
Dangerous builds = 0

unfix 1
undump id

# compute deny all chunk/atom bin/1d y center 0.1 units box
# fix 33 all ave/chunk 10 10 100 deny density/mass file densityprofy.out

compute denx all chunk/atom bin/1d x center 0.1 units box
fix 34 all ave/chunk 10 10 100 denx density/mass file densityprofx_${T}.out
fix 34 all ave/chunk 10 10 100 denx density/mass file densityprofx_0.7.out

fix 2 all nvt temp $T $T 0.01
fix 2 all nvt temp 0.7 $T 0.01
fix 2 all nvt temp 0.7 0.7 0.01
dump nvt all atom 100 dump_${T}.nvt
dump nvt all atom 100 dump_0.7.nvt
run 100000
Generated 0 of 0 mixed pair_coeff terms from geometric mixing rule
Per MPI rank memory allocation (min/avg/max) = 4.208 | 4.27 | 4.331 Mbytes
   Step        Density         PotEng         KinEng         TotEng    
     20000   0.2814        -6.3443861      0.83142349    -5.5129626    
     20050   0.2814        -6.1172622      1.0586737     -5.0585885    
     20100   0.2814        -6.0921602      1.0450761     -5.047084     
     20150   0.2814        -6.0862161      1.0587507     -5.0274654    
     20200   0.2814        -6.0117145      1.0599537     -4.9517608    
     20250   0.2814        -5.9611567      1.0517859     -4.9093708    
     20300   0.2814        -5.9046048      1.0434924     -4.8611124    
     20350   0.2814        -5.8345905      1.0552133     -4.7793772    
     20400   0.2814        -5.790855       1.0664886     -4.7243664    
     20450   0.2814        -5.7006649      1.0416372     -4.6590277    
     20500   0.2814        -5.6273641      1.0543936     -4.5729705    
     20550   0.2814        -5.5831605      1.0501748     -4.5329856    
     20600   0.2814        -5.5117309      1.0518729     -4.459858     
     20650   0.2814        -5.4863156      1.0397685     -4.4465471    
     20700   0.2814        -5.4611446      1.0424121     -4.4187324    
     20750   0.2814        -5.4101622      1.0468555     -4.3633067    
     20800   0.2814        -5.3813219      1.074684      -4.3066379    
     20850   0.2814        -5.3604092      1.0415419     -4.3188673    
     20900   0.2814        -5.3549866      1.0370148     -4.3179718    
     20950   0.2814        -5.3409023      1.0473566     -4.2935458    
     21000   0.2814        -5.3025731      1.0740932     -4.2284799    
     21050   0.2814        -5.269292       1.0409819     -4.2283101    
     21100   0.2814        -5.2656813      1.0314838     -4.2341975    
     21150   0.2814        -5.2559093      1.0548121     -4.2010972    
     21200   0.2814        -5.22462        1.0235617     -4.2010583    
     21250   0.2814        -5.2150703      1.0500795     -4.1649909    
     21300   0.2814        -5.1733068      1.0631901     -4.1101167    
     21350   0.2814        -5.1495099      1.0328707     -4.1166392    
     21400   0.2814        -5.1394579      1.0122883     -4.1271696    
     21450   0.2814        -5.1219621      1.0491175     -4.0728446    
     21500   0.2814        -5.0969408      1.0640968     -4.032844     
     21550   0.2814        -5.0606165      1.0548321     -4.0057844    
     21600   0.2814        -5.0731345      1.0326995     -4.0404349    
     21650   0.2814        -5.0476513      1.0633027     -3.9843485    
     21700   0.2814        -5.0181414      1.0216117     -3.9965297    
     21750   0.2814        -5.0005446      1.0159581     -3.9845865    
     21800   0.2814        -4.9953394      1.0322921     -3.9630473    
     21850   0.2814        -4.9699408      1.0572334     -3.9127074    
     21900   0.2814        -4.973069       1.0470533     -3.9260157    
     21950   0.2814        -4.9388764      1.0390696     -3.8998068    
     22000   0.2814        -4.9420255      1.0566448     -3.8853807    
     22050   0.2814        -4.9263395      1.0451973     -3.8811422    
     22100   0.2814        -4.9234971      1.0516571     -3.87184      
     22150   0.2814        -4.9260753      1.0244315     -3.9016438    
     22200   0.2814        -4.9242671      1.0479664     -3.8763006    
     22250   0.2814        -4.9059481      1.052931      -3.8530172    
     22300   0.2814        -4.9437012      1.0621254     -3.8815757    
     22350   0.2814        -4.9276601      1.0227717     -3.9048884    
     22400   0.2814        -4.9200567      1.058989      -3.8610676    
     22450   0.2814        -4.9288406      1.0528102     -3.8760304    
     22500   0.2814        -4.9284085      1.049692      -3.8787164    
     22550   0.2814        -4.9318891      1.0495183     -3.8823708    
     22600   0.2814        -4.9610822      1.0558899     -3.9051923    
     22650   0.2814        -4.9558519      1.0333668     -3.9224851    
     22700   0.2814        -4.964932       1.0231102     -3.9418218    
     22750   0.2814        -4.979609       1.0427863     -3.9368227    
     22800   0.2814        -4.9882811      1.0538619     -3.9344192    
     22850   0.2814        -4.9966607      1.055511      -3.9411497    
     22900   0.2814        -5.0021654      1.0613955     -3.9407698    
     22950   0.2814        -5.0004774      1.0589745     -3.9415029    
     23000   0.2814        -5.0076345      1.0608405     -3.946794     
     23050   0.2814        -5.0166487      1.0457431     -3.9709056    
     23100   0.2814        -5.0121726      1.0420636     -3.970109     
     23150   0.2814        -4.994002       1.0296514     -3.9643507    
     23200   0.2814        -5.0288838      1.0390783     -3.9898055    
     23250   0.2814        -4.9923105      1.0539773     -3.9383332    
     23300   0.2814        -5.0028423      1.0370627     -3.9657796    
     23350   0.2814        -5.0075546      1.0353978     -3.9721568    
     23400   0.2814        -4.9972465      1.0423165     -3.9549301    
     23450   0.2814        -5.0003847      1.0528563     -3.9475284    
     23500   0.2814        -4.9971738      1.0570668     -3.940107     
     23550   0.2814        -5.0035924      1.0589811     -3.9446113    
     23600   0.2814        -5.0115057      1.0523641     -3.9591416    
     23650   0.2814        -4.9841972      1.0339873     -3.9502099    
     23700   0.2814        -4.9892037      1.04433       -3.9448737    
     23750   0.2814        -5.0020065      1.0610723     -3.9409342    
     23800   0.2814        -5.0014252      1.0529627     -3.9484625    
     23850   0.2814        -4.9927766      1.0119421     -3.9808345    
     23900   0.2814        -4.9892373      1.0287597     -3.9604775    
     23950   0.2814        -4.9895131      1.0532672     -3.9362459    
     24000   0.2814        -4.9957659      1.0763202     -3.9194457    
     24050   0.2814        -4.9912348      1.0289405     -3.9622943    
     24100   0.2814        -4.9805242      1.0354747     -3.9450495    
     24150   0.2814        -4.9918231      1.020688      -3.9711351    
     24200   0.2814        -4.9829422      1.03839       -3.9445522    
     24250   0.2814        -4.9906294      1.0606714     -3.929958     
     24300   0.2814        -4.9904383      1.0506326     -3.9398057    
     24350   0.2814        -4.9934712      1.0360446     -3.9574267    
     24400   0.2814        -4.9855763      1.0325578     -3.9530185    
     24450   0.2814        -5.0022869      1.0322202     -3.9700666    
     24500   0.2814        -4.9750302      1.0668797     -3.9081505    
     24550   0.2814        -4.9716069      1.0299932     -3.9416137    
     24600   0.2814        -4.9890808      1.0606052     -3.9284756    
     24650   0.2814        -4.980467       1.0557036     -3.9247634    
     24700   0.2814        -4.9730121      1.0380516     -3.9349605    
     24750   0.2814        -4.9696115      1.0634091     -3.9062024    
     24800   0.2814        -4.9772673      1.051977      -3.9252903    
     24850   0.2814        -4.9684289      1.0729293     -3.8954996    
     24900   0.2814        -4.9785588      1.0663399     -3.9122189    
     24950   0.2814        -4.9717757      1.062968      -3.9088077    
     25000   0.2814        -4.9710783      1.0645288     -3.9065495    
     25050   0.2814        -4.9762199      1.0450808     -3.9311391    
     25100   0.2814        -4.9472557      1.0424681     -3.9047876    
     25150   0.2814        -4.9348167      1.0458542     -3.8889625    
     25200   0.2814        -4.9572208      1.0414805     -3.9157403    
     25250   0.2814        -4.9491247      1.0343986     -3.9147261    
     25300   0.2814        -4.9533787      1.042017      -3.9113617    
     25350   0.2814        -4.9508431      1.0541113     -3.8967318    
     25400   0.2814        -4.9479352      1.0514249     -3.8965103    
     25450   0.2814        -4.9486396      1.0409339     -3.9077058    
     25500   0.2814        -4.9049065      1.0579376     -3.8469689    
     25550   0.2814        -4.933325       1.0580921     -3.8752329    
     25600   0.2814        -4.9352342      1.0329513     -3.902283     
     25650   0.2814        -4.94143        1.058387      -3.883043     
     25700   0.2814        -4.9312356      1.0396773     -3.8915583    
     25750   0.2814        -4.9326313      1.0429766     -3.8896547    
     25800   0.2814        -4.9410787      1.0526882     -3.8883905    
     25850   0.2814        -4.9234823      1.0534297     -3.8700527    
     25900   0.2814        -4.9284015      1.0630426     -3.8653589    
     25950   0.2814        -4.9533967      1.0339805     -3.9194163    
     26000   0.2814        -4.9411021      1.0651202     -3.8759819    
     26050   0.2814        -4.9487342      1.0355178     -3.9132164    
     26100   0.2814        -4.9510249      1.0539905     -3.8970344    
     26150   0.2814        -4.9697366      1.0589621     -3.9107745    
     26200   0.2814        -4.9719857      1.0612752     -3.9107105    
     26250   0.2814        -4.9855005      1.0686718     -3.9168288    
     26300   0.2814        -4.9765705      1.0536427     -3.9229278    
     26350   0.2814        -4.9761012      1.0669227     -3.9091784    
     26400   0.2814        -4.9559019      1.0610522     -3.8948497    
     26450   0.2814        -4.9604612      1.0431095     -3.9173517    
     26500   0.2814        -4.970683       1.0523889     -3.9182941    
     26550   0.2814        -5.0013616      1.0524143     -3.9489473    
     26600   0.2814        -4.9741226      1.0474573     -3.9266653    
     26650   0.2814        -4.9937191      1.0322098     -3.9615093    
     26700   0.2814        -5.0183237      1.0658193     -3.9525044    
     26750   0.2814        -5.0144933      1.046613      -3.9678803    
     26800   0.2814        -5.0054167      1.0538877     -3.951529     
     26850   0.2814        -5.0101446      1.0358523     -3.9742922    
     26900   0.2814        -5.010646       1.0356595     -3.9749865    
     26950   0.2814        -5.0182327      1.0522593     -3.9659734    
     27000   0.2814        -5.0157711      1.0415524     -3.9742187    
     27050   0.2814        -4.9858212      1.0224981     -3.9633231    
     27100   0.2814        -4.9875955      1.0615799     -3.9260156    
     27150   0.2814        -4.9999078      1.0803651     -3.9195427    
     27200   0.2814        -4.990293       1.0449144     -3.9453786    
     27250   0.2814        -4.98996        1.0397355     -3.9502245    
     27300   0.2814        -5.0087143      1.0500779     -3.9586364    
     27350   0.2814        -5.00407        1.0646565     -3.9394135    
     27400   0.2814        -4.9936192      1.0336246     -3.9599946    
     27450   0.2814        -4.9980396      1.0359261     -3.9621135    
     27500   0.2814        -4.997383       1.0448223     -3.9525607    
     27550   0.2814        -4.9952143      1.0745287     -3.9206856    
     27600   0.2814        -4.9796451      1.0488065     -3.9308386    
     27650   0.2814        -4.944714       1.029493      -3.915221     
     27700   0.2814        -4.9682012      1.0294978     -3.9387034    
     27750   0.2814        -4.9766795      1.069756      -3.9069235    
     27800   0.2814        -4.9762132      1.0587931     -3.9174201    
     27850   0.2814        -4.9761768      1.0207303     -3.9554465    
     27900   0.2814        -4.9822205      1.0516189     -3.9306015    
     27950   0.2814        -4.9517722      1.0547986     -3.8969737    
     28000   0.2814        -4.9657976      1.0620525     -3.9037451    
     28050   0.2814        -4.9596439      1.0616742     -3.8979697    
     28100   0.2814        -4.9596654      1.0363805     -3.9232849    
     28150   0.2814        -4.9642641      1.0485971     -3.915667     
     28200   0.2814        -4.9912193      1.0336696     -3.9575497    
     28250   0.2814        -4.9681854      1.056942      -3.9112434    
     28300   0.2814        -4.9667371      1.0466657     -3.9200714    
     28350   0.2814        -4.9616846      1.0238433     -3.9378414    
     28400   0.2814        -4.9743244      1.0606468     -3.9136776    
     28450   0.2814        -4.969444       1.0727923     -3.8966517    
     28500   0.2814        -4.9609334      1.0452775     -3.9156558    
     28550   0.2814        -4.9691117      1.0562648     -3.9128469    
     28600   0.2814        -4.9593522      1.0791482     -3.880204     
     28650   0.2814        -4.9617355      1.0297423     -3.9319932    
     28700   0.2814        -4.9683327      1.0431871     -3.9251456    
     28750   0.2814        -4.9513269      1.0550428     -3.8962841    
     28800   0.2814        -4.9455593      1.0634547     -3.8821046    
     28850   0.2814        -4.9398606      1.0529499     -3.8869107    
     28900   0.2814        -4.9340586      1.0576553     -3.8764033    
     28950   0.2814        -4.9506747      1.0376134     -3.9130613    
     29000   0.2814        -4.951442       1.048378      -3.903064     
     29050   0.2814        -4.9488708      1.0742444     -3.8746264    
     29100   0.2814        -4.9439645      1.0454132     -3.8985513    
     29150   0.2814        -4.9546733      1.063515      -3.8911584    
     29200   0.2814        -4.961373       1.0561983     -3.9051747    
     29250   0.2814        -4.9738504      1.0666867     -3.9071638    
     29300   0.2814        -4.9607435      1.0616657     -3.8990778    
     29350   0.2814        -4.9684286      1.0470328     -3.9213958    
     29400   0.2814        -4.9675825      1.0510329     -3.9165496    
     29450   0.2814        -4.977913       1.0397722     -3.9381407    
     29500   0.2814        -4.9794309      1.0346288     -3.9448022    
     29550   0.2814        -4.9527516      1.0537427     -3.8990089    
     29600   0.2814        -4.9692323      1.027858      -3.9413743    
     29650   0.2814        -4.9761253      1.0732859     -3.9028394    
     29700   0.2814        -4.9950232      1.043295      -3.9517282    
     29750   0.2814        -5.0097718      1.0597018     -3.95007      
     29800   0.2814        -5.0090773      1.0459443     -3.963133     
     29850   0.2814        -5.0164662      1.0391064     -3.9773598    
     29900   0.2814        -5.003473       1.0367476     -3.9667254    
     29950   0.2814        -5.0205533      1.0641204     -3.9564329    
     30000   0.2814        -5.0072894      1.0470733     -3.9602161    
     30050   0.2814        -5.0255032      1.0496413     -3.9758619    
     30100   0.2814        -5.0220007      1.0605708     -3.96143      
     30150   0.2814        -5.0187919      1.0265517     -3.9922402    
     30200   0.2814        -5.0127877      1.0247738     -3.9880139    
     30250   0.2814        -5.0091848      1.0656099     -3.9435749    
     30300   0.2814        -5.0030378      1.0464084     -3.9566294    
     30350   0.2814        -5.0189724      1.0287167     -3.9902557    
     30400   0.2814        -4.9990144      1.0420201     -3.9569943    
     30450   0.2814        -4.9782862      1.0367787     -3.9415075    
     30500   0.2814        -5.0012596      1.0380509     -3.9632088    
     30550   0.2814        -4.9902217      1.0277253     -3.9624964    
     30600   0.2814        -4.9878608      1.0564222     -3.9314385    
     30650   0.2814        -4.9572743      1.0538375     -3.9034368    
     30700   0.2814        -4.9513213      1.0271585     -3.9241629    
     30750   0.2814        -4.9598393      1.045726      -3.9141133    
     30800   0.2814        -4.9464853      1.0634525     -3.8830328    
     30850   0.2814        -4.9433166      1.035514      -3.9078025    
     30900   0.2814        -4.9500624      1.0371295     -3.912933     
     30950   0.2814        -4.9436914      1.0678599     -3.8758315    
     31000   0.2814        -4.9346352      1.0533009     -3.8813343    
     31050   0.2814        -4.937378       1.0458771     -3.8915008    
     31100   0.2814        -4.9344569      1.0621512     -3.8723057    
     31150   0.2814        -4.9416627      1.0528383     -3.8888244    
     31200   0.2814        -4.9156319      1.0256347     -3.8899971    
     31250   0.2814        -4.9449896      1.0547426     -3.890247     
     31300   0.2814        -4.9385374      1.0350375     -3.9034999    
     31350   0.2814        -4.9390779      1.0727196     -3.8663583    
     31400   0.2814        -4.9572664      1.0516087     -3.9056577    
     31450   0.2814        -4.9549599      1.0542062     -3.9007538    
     31500   0.2814        -4.9350479      1.0556061     -3.8794418    
     31550   0.2814        -4.9644625      1.0517522     -3.9127103    
     31600   0.2814        -4.9703924      1.0654767     -3.9049157    
     31650   0.2814        -4.9839962      1.0561505     -3.9278457    
     31700   0.2814        -4.9961347      1.0596915     -3.9364432    
     31750   0.2814        -4.9919117      1.029477      -3.9624348    
     31800   0.2814        -5.0181459      1.0477148     -3.9704311    
     31850   0.2814        -5.0159128      1.038351      -3.9775617    
     31900   0.2814        -5.0018627      1.0515625     -3.9503002    
     31950   0.2814        -5.0042339      1.0479456     -3.9562883    
     32000   0.2814        -5.0072888      1.0540184     -3.9532704    
     32050   0.2814        -5.0155602      1.0483626     -3.9671977    
     32100   0.2814        -5.0112913      1.0554561     -3.9558352    
     32150   0.2814        -5.0127367      1.0465836     -3.9661531    
     32200   0.2814        -5.01795        1.0292074     -3.9887426    
     32250   0.2814        -5.0167516      1.0696304     -3.9471212    
     32300   0.2814        -4.9906395      1.0440874     -3.9465522    
     32350   0.2814        -4.9947974      1.0638646     -3.9309328    
     32400   0.2814        -4.9993867      1.0659709     -3.9334157    
     32450   0.2814        -4.9879747      1.0388946     -3.9490801    
     32500   0.2814        -4.9867516      1.0254738     -3.9612778    
     32550   0.2814        -4.9860945      1.0417709     -3.9443236    
     32600   0.2814        -4.9824383      1.0496793     -3.932759     
     32650   0.2814        -4.9863361      1.0463327     -3.9400035    
     32700   0.2814        -4.9716619      1.0468769     -3.924785     
     32750   0.2814        -4.9724462      1.0160292     -3.956417     
     32800   0.2814        -4.9689089      1.0559942     -3.9129147    
     32850   0.2814        -4.9689719      1.0313052     -3.9376667    
     32900   0.2814        -4.9464628      1.033764      -3.9126988    
     32950   0.2814        -4.9300957      1.0524114     -3.8776843    
     33000   0.2814        -4.9490149      1.0576508     -3.8913641    
     33050   0.2814        -4.9407383      1.0203193     -3.920419     
     33100   0.2814        -4.9444376      1.0571464     -3.8872912    
     33150   0.2814        -4.9386755      1.0416221     -3.8970534    
     33200   0.2814        -4.9412363      1.0549849     -3.8862513    
     33250   0.2814        -4.9624845      1.0599858     -3.9024988    
     33300   0.2814        -4.959044       1.0588094     -3.9002346    
     33350   0.2814        -4.9619855      1.0510536     -3.9109319    
     33400   0.2814        -4.9815991      1.0582344     -3.9233647    
     33450   0.2814        -4.9712314      1.051923      -3.9193084    
     33500   0.2814        -4.9714118      1.0637243     -3.9076875    
     33550   0.2814        -4.9618722      1.0315        -3.9303722    
     33600   0.2814        -4.9929137      1.0381962     -3.9547175    
     33650   0.2814        -4.9718153      1.0770636     -3.8947517    
     33700   0.2814        -4.9716221      1.0511337     -3.9204884    
     33750   0.2814        -4.9835926      1.0635089     -3.9200837    
     33800   0.2814        -4.9907607      1.0598962     -3.9308645    
     33850   0.2814        -4.9889912      1.0545897     -3.9344015    
     33900   0.2814        -4.9735696      1.040526      -3.9330436    
     33950   0.2814        -4.9936335      1.0436802     -3.9499532    
     34000   0.2814        -4.9776012      1.0844038     -3.8931974    
     34050   0.2814        -4.9918705      1.0496989     -3.9421716    
     34100   0.2814        -4.9889356      1.0314042     -3.9575314    
     34150   0.2814        -4.9826252      1.0441404     -3.9384848    
     34200   0.2814        -4.9887782      1.0534201     -3.9353581    
     34250   0.2814        -4.9449654      1.0438058     -3.9011595    
     34300   0.2814        -4.9613792      1.0520559     -3.9093232    
     34350   0.2814        -4.9764268      1.0497629     -3.9266639    
     34400   0.2814        -4.9686138      1.0252509     -3.9433629    
     34450   0.2814        -4.9594125      1.0315085     -3.927904     
     34500   0.2814        -4.9800755      1.0578544     -3.922221     
     34550   0.2814        -4.9735614      1.0436209     -3.9299405    
     34600   0.2814        -4.9659185      1.0575264     -3.9083921    
     34650   0.2814        -4.9497216      1.0733228     -3.8763988    
     34700   0.2814        -4.9866912      1.0583032     -3.928388     
     34750   0.2814        -4.9638479      1.0412637     -3.9225842    
     34800   0.2814        -4.9492889      1.0568096     -3.8924793    
     34850   0.2814        -4.9180867      1.0508874     -3.8671993    
     34900   0.2814        -4.9571369      1.04287       -3.9142669    
     34950   0.2814        -4.9504934      1.0491534     -3.90134      
     35000   0.2814        -4.9470303      1.0550139     -3.8920164    
     35050   0.2814        -4.9543368      1.0491052     -3.9052316    
     35100   0.2814        -4.9395515      1.0471681     -3.8923834    
     35150   0.2814        -4.9431441      1.0455716     -3.8975725    
     35200   0.2814        -4.9586961      1.0510797     -3.9076164    
     35250   0.2814        -4.9443132      1.0774423     -3.8668709    
     35300   0.2814        -4.9213483      1.0565169     -3.8648315    
     35350   0.2814        -4.9158618      1.0519714     -3.8638904    
     35400   0.2814        -4.9337112      1.0301178     -3.9035934    
     35450   0.2814        -4.9326402      1.0322362     -3.900404     
     35500   0.2814        -4.9302288      1.0596908     -3.870538     
     35550   0.2814        -4.9388878      1.0379067     -3.9009812    
     35600   0.2814        -4.9468779      1.04161       -3.905268     
     35650   0.2814        -4.9396089      1.0569721     -3.8826367    
     35700   0.2814        -4.9505267      1.0250331     -3.9254937    
     35750   0.2814        -4.9425059      1.0581378     -3.8843681    
     35800   0.2814        -4.941897       1.0536455     -3.8882514    
     35850   0.2814        -4.9521612      1.0539434     -3.8982178    
     35900   0.2814        -4.9706891      1.0589802     -3.9117089    
     35950   0.2814        -4.9686737      1.0425187     -3.9261551    
     36000   0.2814        -4.9845794      1.0523734     -3.932206     
     36050   0.2814        -4.9572546      1.0631408     -3.8941138    
     36100   0.2814        -4.9581905      1.0350099     -3.9231806    
     36150   0.2814        -4.9785778      1.0502638     -3.9283141    
     36200   0.2814        -4.9711868      1.0474467     -3.9237401    
     36250   0.2814        -4.9833434      1.0787655     -3.904578     
     36300   0.2814        -4.9739471      1.0701324     -3.9038147    
     36350   0.2814        -4.9712583      1.0558196     -3.9154387    
     36400   0.2814        -4.9801666      1.0641836     -3.915983     
     36450   0.2814        -4.9740892      1.0198013     -3.9542879    
     36500   0.2814        -4.9718529      1.0325355     -3.9393174    
     36550   0.2814        -4.9716784      1.0540963     -3.9175821    
     36600   0.2814        -4.973253       1.0736713     -3.8995817    
     36650   0.2814        -4.9634369      1.043812      -3.9196249    
     36700   0.2814        -4.9537556      1.0664319     -3.8873237    
     36750   0.2814        -4.9592743      1.0559723     -3.903302     
     36800   0.2814        -4.9597528      1.045654      -3.9140989    
     36850   0.2814        -4.9509137      1.0484129     -3.9025009    
     36900   0.2814        -4.9603759      1.055792      -3.9045839    
     36950   0.2814        -4.9787715      1.0596686     -3.9191029    
     37000   0.2814        -4.973137       1.0357732     -3.9373638    
     37050   0.2814        -4.9522265      1.0219342     -3.9302923    
     37100   0.2814        -4.966538       1.060059      -3.906479     
     37150   0.2814        -4.9748609      1.0386145     -3.9362464    
     37200   0.2814        -4.9562219      1.0487892     -3.9074327    
     37250   0.2814        -4.9550414      1.0476578     -3.9073836    
     37300   0.2814        -4.9721377      1.060032      -3.9121057    
     37350   0.2814        -4.9537577      1.0445937     -3.909164     
     37400   0.2814        -4.9444424      1.0501154     -3.8943271    
     37450   0.2814        -4.948474       1.071038      -3.877436     
     37500   0.2814        -4.9639797      1.0539428     -3.9100369    
     37550   0.2814        -4.9728482      1.0531578     -3.9196904    
     37600   0.2814        -4.9627366      1.0367875     -3.9259491    
     37650   0.2814        -4.9603364      1.0304541     -3.9298824    
     37700   0.2814        -4.9803859      1.062485      -3.9179009    
     37750   0.2814        -4.9586127      1.0622264     -3.8963863    
     37800   0.2814        -4.9689125      1.045244      -3.9236684    
     37850   0.2814        -4.9715593      1.0577525     -3.9138067    
     37900   0.2814        -4.9592431      1.0458086     -3.9134345    
     37950   0.2814        -4.9617092      1.0428079     -3.9189014    
     38000   0.2814        -4.9802898      1.0521845     -3.9281054    
     38050   0.2814        -4.964819       1.0698641     -3.8949549    
     38100   0.2814        -4.9741403      1.0476299     -3.9265104    
     38150   0.2814        -4.9434696      1.0599587     -3.8835108    
     38200   0.2814        -4.9648752      1.0411856     -3.9236896    
     38250   0.2814        -4.9627461      1.0543227     -3.9084234    
     38300   0.2814        -4.9520644      1.0484277     -3.9036367    
     38350   0.2814        -4.9683202      1.0404103     -3.9279098    
     38400   0.2814        -4.9586621      1.0271399     -3.9315221    
     38450   0.2814        -4.9738207      1.03273       -3.9410907    
     38500   0.2814        -4.978349       1.0492109     -3.9291381    
     38550   0.2814        -4.9842693      1.0683404     -3.9159289    
     38600   0.2814        -4.9819193      1.0382254     -3.9436939    
     38650   0.2814        -4.9720812      1.0272956     -3.9447855    
     38700   0.2814        -4.9644855      1.0585197     -3.9059657    
     38750   0.2814        -4.9826948      1.0275579     -3.9551369    
     38800   0.2814        -4.9818245      1.0477086     -3.9341159    
     38850   0.2814        -4.981296       1.061212      -3.920084     
     38900   0.2814        -4.9681626      1.0499117     -3.9182509    
     38950   0.2814        -5.0071849      1.0476317     -3.9595532    
     39000   0.2814        -4.995134       1.0607201     -3.9344139    
     39050   0.2814        -4.9712741      1.0484525     -3.9228215    
     39100   0.2814        -4.9909649      1.0483416     -3.9426233    
     39150   0.2814        -4.9672851      1.0675413     -3.8997438    
     39200   0.2814        -4.9626094      1.0363553     -3.9262541    
     39250   0.2814        -4.9836025      1.0598568     -3.9237457    
     39300   0.2814        -4.965062       1.0586754     -3.9063867    
     39350   0.2814        -4.9744945      1.0429325     -3.931562     
     39400   0.2814        -4.9447803      1.0570448     -3.8877355    
     39450   0.2814        -4.9473692      1.0586249     -3.8887444    
     39500   0.2814        -4.952422       1.0524913     -3.8999306    
     39550   0.2814        -4.9520523      1.0472778     -3.9047744    
     39600   0.2814        -4.9450086      1.0391045     -3.9059041    
     39650   0.2814        -4.929469       1.0521791     -3.8772899    
     39700   0.2814        -4.9267685      1.0687491     -3.8580195    
     39750   0.2814        -4.9035639      1.0398015     -3.8637624    
     39800   0.2814        -4.9470015      1.0283378     -3.9186638    
     39850   0.2814        -4.926245       1.0715693     -3.8546757    
     39900   0.2814        -4.9143018      1.0381556     -3.8761462    
     39950   0.2814        -4.9261383      1.0432257     -3.8829127    
     40000   0.2814        -4.9246735      1.0691472     -3.8555263    
     40050   0.2814        -4.9128734      1.0396519     -3.8732214    
     40100   0.2814        -4.9302997      1.0593845     -3.8709152    
     40150   0.2814        -4.9150247      1.0617551     -3.8532696    
     40200   0.2814        -4.9286488      1.0214345     -3.9072143    
     40250   0.2814        -4.9250031      1.0351671     -3.889836     
     40300   0.2814        -4.9293139      1.0436921     -3.8856218    
     40350   0.2814        -4.9362206      1.0407712     -3.8954494    
     40400   0.2814        -4.942302       1.050474      -3.891828     
     40450   0.2814        -4.9382403      1.0398182     -3.8984221    
     40500   0.2814        -4.96675        1.0561414     -3.9106086    
     40550   0.2814        -4.9358117      1.0344079     -3.9014038    
     40600   0.2814        -4.9556322      1.0330181     -3.9226141    
     40650   0.2814        -4.9489941      1.0462319     -3.9027622    
     40700   0.2814        -4.9230359      1.0448349     -3.878201     
     40750   0.2814        -4.9310901      1.0462908     -3.8847993    
     40800   0.2814        -4.9541939      1.0671096     -3.8870843    
     40850   0.2814        -4.9567631      1.0420706     -3.9146925    
     40900   0.2814        -4.9403317      1.041863      -3.8984687    
     40950   0.2814        -4.9575379      1.0170742     -3.9404637    
     41000   0.2814        -4.9615837      1.0531097     -3.908474     
     41050   0.2814        -4.9269866      1.0576281     -3.8693585    
     41100   0.2814        -4.9423228      1.0351807     -3.9071421    
     41150   0.2814        -4.937006       1.0602972     -3.8767088    
     41200   0.2814        -4.9453137      1.0621462     -3.8831675    
     41250   0.2814        -4.9487284      1.044371      -3.9043574    
     41300   0.2814        -4.9661182      1.0537458     -3.9123724    
     41350   0.2814        -4.9431931      1.0486522     -3.8945409    
     41400   0.2814        -4.9465576      1.0604097     -3.8861479    
     41450   0.2814        -4.9481741      1.0268422     -3.9213319    
     41500   0.2814        -4.937315       1.0814911     -3.8558239    
     41550   0.2814        -4.9270261      1.0612572     -3.8657689    
     41600   0.2814        -4.9429803      1.0362518     -3.9067284    
     41650   0.2814        -4.954901       1.0441214     -3.9107796    
     41700   0.2814        -4.9488866      1.0585121     -3.8903745    
     41750   0.2814        -4.9406619      1.0421125     -3.8985494    
     41800   0.2814        -4.9633325      1.043275      -3.9200575    
     41850   0.2814        -4.9328873      1.0595913     -3.873296     
     41900   0.2814        -4.9524822      1.0448995     -3.9075827    
     41950   0.2814        -4.9481166      1.0605401     -3.8875764    
     42000   0.2814        -4.9514193      1.0331413     -3.918278     
     42050   0.2814        -4.9635104      1.038854      -3.9246563    
     42100   0.2814        -4.9538525      1.0711492     -3.8827034    
     42150   0.2814        -4.9482821      1.0557142     -3.8925679    
     42200   0.2814        -4.9574899      1.0218559     -3.935634     
     42250   0.2814        -4.9722425      1.0493864     -3.9228561    
     42300   0.2814        -4.9667101      1.0586225     -3.9080876    
     42350   0.2814        -4.9661574      1.0402527     -3.9259048    
     42400   0.2814        -4.984636       1.0342428     -3.9503932    
     42450   0.2814        -4.9869355      1.050536      -3.9363995    
     42500   0.2814        -4.9670708      1.0536297     -3.9134411    
     42550   0.2814        -4.9806882      1.0322753     -3.948413     
     42600   0.2814        -4.9794869      1.0418324     -3.9376544    
     42650   0.2814        -4.9620932      1.0619874     -3.9001059    
     42700   0.2814        -4.9787822      1.0510259     -3.9277563    
     42750   0.2814        -4.981658       1.0452821     -3.9363759    
     42800   0.2814        -4.9836104      1.0337452     -3.9498652    
     42850   0.2814        -4.9769229      1.0572446     -3.9196783    
     42900   0.2814        -4.9822301      1.0425305     -3.9396996    
     42950   0.2814        -4.9818012      1.0540737     -3.9277275    
     43000   0.2814        -4.981415       1.0595007     -3.9219142    
     43050   0.2814        -4.9669253      1.0376581     -3.9292672    
     43100   0.2814        -4.9545014      1.0475369     -3.9069645    
     43150   0.2814        -4.9617627      1.0269939     -3.9347689    
     43200   0.2814        -4.9511414      1.0661344     -3.885007     
     43250   0.2814        -4.9588877      1.0568378     -3.9020499    
     43300   0.2814        -4.9345356      1.036175      -3.8983606    
     43350   0.2814        -4.9678703      1.0515427     -3.9163276    
     43400   0.2814        -4.9410459      1.0606651     -3.8803808    
     43450   0.2814        -4.9429873      1.0375358     -3.9054514    
     43500   0.2814        -4.9581533      1.027898      -3.9302553    
     43550   0.2814        -4.948576       1.0374668     -3.9111093    
     43600   0.2814        -4.9460538      1.0441617     -3.9018921    
     43650   0.2814        -4.96474        1.0770874     -3.8876527    
     43700   0.2814        -4.9536404      1.0368749     -3.9167656    
     43750   0.2814        -4.9557989      1.0315749     -3.9242239    
     43800   0.2814        -4.9553177      1.0334965     -3.9218212    
     43850   0.2814        -4.9426851      1.0530734     -3.8896117    
     43900   0.2814        -4.9740278      1.0527992     -3.9212286    
     43950   0.2814        -4.9553544      1.0508536     -3.9045008    
     44000   0.2814        -4.967737       1.0424094     -3.9253277    
     44050   0.2814        -4.9488981      1.0546743     -3.8942238    
     44100   0.2814        -4.9856338      1.0686817     -3.9169521    
     44150   0.2814        -4.9659684      1.0631297     -3.9028386    
     44200   0.2814        -4.9380977      1.0579406     -3.8801571    
     44250   0.2814        -4.9601827      1.0749501     -3.8852326    
     44300   0.2814        -4.9783923      1.0375965     -3.9407958    
     44350   0.2814        -4.982351       1.0438924     -3.9384587    
     44400   0.2814        -4.9782277      1.0324516     -3.945776     
     44450   0.2814        -4.9660426      1.0555751     -3.9104675    
     44500   0.2814        -4.969901       1.0377569     -3.9321441    
     44550   0.2814        -4.9613517      1.041626      -3.9197257    
     44600   0.2814        -4.9367358      1.0352936     -3.9014422    
     44650   0.2814        -4.9558025      1.0551107     -3.9006918    
     44700   0.2814        -4.9380158      1.0398568     -3.898159     
     44750   0.2814        -4.9470777      1.0568109     -3.8902668    
     44800   0.2814        -4.9528451      1.0641899     -3.8886552    
     44850   0.2814        -4.9709321      1.0253857     -3.9455465    
     44900   0.2814        -4.9733496      1.0346679     -3.9386817    
     44950   0.2814        -4.9674871      1.0453265     -3.9221607    
     45000   0.2814        -4.9697785      1.0468242     -3.9229543    
     45050   0.2814        -4.9751343      1.0619377     -3.9131966    
     45100   0.2814        -4.9590252      1.0426274     -3.9163978    
     45150   0.2814        -4.9661561      1.0594761     -3.90668      
     45200   0.2814        -4.9760688      1.0620515     -3.9140173    
     45250   0.2814        -4.9863104      1.0598456     -3.9264648    
     45300   0.2814        -4.9635926      1.0633087     -3.9002839    
     45350   0.2814        -4.9682083      1.0391849     -3.9290234    
     45400   0.2814        -4.9541257      1.0398087     -3.9143169    
     45450   0.2814        -4.9478185      1.0275815     -3.920237     
     45500   0.2814        -4.9702392      1.0674796     -3.9027596    
     45550   0.2814        -4.9389301      1.0633972     -3.8755329    
     45600   0.2814        -4.9678582      1.0487222     -3.919136     
     45650   0.2814        -4.9567465      1.0051753     -3.9515712    
     45700   0.2814        -4.9554526      1.0415886     -3.9138639    
     45750   0.2814        -4.9725308      1.0682645     -3.9042664    
     45800   0.2814        -4.9612015      1.0484127     -3.9127888    
     45850   0.2814        -4.9521773      1.0488602     -3.9033171    
     45900   0.2814        -4.9483775      1.0505879     -3.8977895    
     45950   0.2814        -4.9473268      1.0563432     -3.8909836    
     46000   0.2814        -4.945957       1.0465157     -3.8994414    
     46050   0.2814        -4.9432175      1.0352235     -3.907994     
     46100   0.2814        -4.9594111      1.0565969     -3.9028142    
     46150   0.2814        -4.9703457      1.0176778     -3.9526679    
     46200   0.2814        -4.9452422      1.0629783     -3.8822639    
     46250   0.2814        -4.9494837      1.0412421     -3.9082416    
     46300   0.2814        -4.9402364      1.043886      -3.8963504    
     46350   0.2814        -4.9471778      1.0310411     -3.9161367    
     46400   0.2814        -4.9512133      1.0479552     -3.9032581    
     46450   0.2814        -4.9483375      1.0473913     -3.9009462    
     46500   0.2814        -4.9560829      1.0594154     -3.8966676    
     46550   0.2814        -4.9450885      1.0513958     -3.8936928    
     46600   0.2814        -4.9814005      1.0513971     -3.9300034    
     46650   0.2814        -4.9509991      1.0496234     -3.9013757    
     46700   0.2814        -4.9556214      1.0647978     -3.8908236    
     46750   0.2814        -4.9519781      1.0630015     -3.8889766    
     46800   0.2814        -4.9283817      1.0333177     -3.895064     
     46850   0.2814        -4.9422961      1.050663      -3.8916332    
     46900   0.2814        -4.9418447      1.0718159     -3.8700289    
     46950   0.2814        -4.945491       1.0402315     -3.9052595    
     47000   0.2814        -4.9428931      1.031344      -3.9115491    
     47050   0.2814        -4.9197752      1.068503      -3.8512722    
     47100   0.2814        -4.9325342      1.0527341     -3.8798001    
     47150   0.2814        -4.9309227      1.0452761     -3.8856466    
     47200   0.2814        -4.9168724      1.0403239     -3.8765484    
     47250   0.2814        -4.9066922      1.0617893     -3.8449029    
     47300   0.2814        -4.9363498      1.0554783     -3.8808716    
     47350   0.2814        -4.9471247      1.0613205     -3.8858042    
     47400   0.2814        -4.9072738      1.0540494     -3.8532244    
     47450   0.2814        -4.9386176      1.0336019     -3.9050157    
     47500   0.2814        -4.919741       1.0206648     -3.8990761    
     47550   0.2814        -4.9345195      1.0398098     -3.8947097    
     47600   0.2814        -4.9380649      1.0493416     -3.8887232    
     47650   0.2814        -4.9431345      1.0616636     -3.881471     
     47700   0.2814        -4.9163073      1.0450121     -3.8712952    
     47750   0.2814        -4.9192858      1.0465669     -3.8727189    
     47800   0.2814        -4.9450341      1.0526806     -3.8923535    
     47850   0.2814        -4.9311869      1.0518373     -3.8793496    
     47900   0.2814        -4.9328504      1.058598      -3.8742524    
     47950   0.2814        -4.9377018      1.0548303     -3.8828715    
     48000   0.2814        -4.946114       1.01623       -3.929884     
     48050   0.2814        -4.9429823      1.0509092     -3.8920731    
     48100   0.2814        -4.9492552      1.0677343     -3.8815209    
     48150   0.2814        -4.9243982      1.0311867     -3.8932115    
     48200   0.2814        -4.9541899      1.0572721     -3.8969178    
     48250   0.2814        -4.9430021      1.0102763     -3.9327257    
     48300   0.2814        -4.9462728      1.0328634     -3.9134094    
     48350   0.2814        -4.9434698      1.0544584     -3.8890114    
     48400   0.2814        -4.9636633      1.0194762     -3.9441872    
     48450   0.2814        -4.953493       1.0587305     -3.8947625    
     48500   0.2814        -4.9581349      1.0479202     -3.9102147    
     48550   0.2814        -4.9556219      1.0581129     -3.897509     
     48600   0.2814        -4.9629213      1.0424077     -3.9205136    
     48650   0.2814        -4.9565215      1.0602773     -3.8962442    
     48700   0.2814        -4.9350719      1.0297691     -3.9053028    
     48750   0.2814        -4.9570416      1.0397168     -3.9173247    
     48800   0.2814        -4.9431922      1.0528261     -3.8903661    
     48850   0.2814        -4.942136       1.0314974     -3.9106386    
     48900   0.2814        -4.955587       1.0500706     -3.9055165    
     48950   0.2814        -4.9397653      1.0724416     -3.8673238    
     49000   0.2814        -4.9525765      1.0576808     -3.8948956    
     49050   0.2814        -4.9297299      1.0624624     -3.8672674    
     49100   0.2814        -4.9355544      1.0502671     -3.8852873    
     49150   0.2814        -4.9438741      1.0533755     -3.8904986    
     49200   0.2814        -4.9242565      1.0474956     -3.8767609    
     49250   0.2814        -4.9416361      1.0415342     -3.9001018    
     49300   0.2814        -4.9469277      1.038811      -3.9081166    
     49350   0.2814        -4.9253778      1.0636806     -3.8616971    
     49400   0.2814        -4.9390134      1.0495517     -3.8894617    
     49450   0.2814        -4.9280263      1.0281609     -3.8998654    
     49500   0.2814        -4.9400417      1.0604467     -3.879595     
     49550   0.2814        -4.9310967      1.0433399     -3.8877567    
     49600   0.2814        -4.9442737      1.0586574     -3.8856162    
     49650   0.2814        -4.9395599      1.0622966     -3.8772634    
     49700   0.2814        -4.941181       1.0652321     -3.8759488    
     49750   0.2814        -4.9475341      1.0568832     -3.8906509    
     49800   0.2814        -4.9596457      1.0521576     -3.9074882    
     49850   0.2814        -4.9522764      1.0244212     -3.9278552    
     49900   0.2814        -4.9280387      1.0283171     -3.8997216    
     49950   0.2814        -4.9421494      1.0469599     -3.8951895    
     50000   0.2814        -4.9174583      1.0722608     -3.8451975    
     50050   0.2814        -4.9512935      1.0472612     -3.9040323    
     50100   0.2814        -4.9508204      1.0382941     -3.9125263    
     50150   0.2814        -4.9606001      1.0525761     -3.9080241    
     50200   0.2814        -4.9467748      1.060639      -3.8861358    
     50250   0.2814        -4.9503053      1.0547191     -3.8955862    
     50300   0.2814        -4.9402217      1.0320603     -3.9081614    
     50350   0.2814        -4.921786       1.0466841     -3.8751019    
     50400   0.2814        -4.9281433      1.0331662     -3.8949772    
     50450   0.2814        -4.9392665      1.0417665     -3.8975       
     50500   0.2814        -4.9323628      1.0525013     -3.8798615    
     50550   0.2814        -4.9531321      1.0436895     -3.9094426    
     50600   0.2814        -4.9523582      1.0414828     -3.9108754    
     50650   0.2814        -4.9365101      1.0534764     -3.8830337    
     50700   0.2814        -4.955308       1.0343337     -3.9209742    
     50750   0.2814        -4.9353225      1.0540082     -3.8813142    
     50800   0.2814        -4.9351474      1.0758256     -3.8593218    
     50850   0.2814        -4.932409       1.0319908     -3.9004182    
     50900   0.2814        -4.9292205      1.0364174     -3.8928031    
     50950   0.2814        -4.9300686      1.0595151     -3.8705535    
     51000   0.2814        -4.9577995      1.0660504     -3.8917491    
     51050   0.2814        -4.9364994      1.0538962     -3.8826031    
     51100   0.2814        -4.9423258      1.0379679     -3.9043579    
     51150   0.2814        -4.9402783      1.036171      -3.9041073    
     51200   0.2814        -4.9330488      1.0459052     -3.8871436    
     51250   0.2814        -4.9119645      1.0597905     -3.852174     
     51300   0.2814        -4.9218068      1.0587568     -3.86305      
     51350   0.2814        -4.9123704      1.0493137     -3.8630567    
[...]
    107150   0.2814        -4.8827554      1.0547495     -3.8280059    
    107200   0.2814        -4.8939988      1.0582429     -3.8357559    
    107250   0.2814        -4.8881423      1.0559365     -3.8322058    
    107300   0.2814        -4.8774439      1.0472386     -3.8302053    
    107350   0.2814        -4.8823628      1.0565197     -3.8258431    
    107400   0.2814        -4.8744333      1.0522146     -3.8222187    
    107450   0.2814        -4.8826049      1.0357852     -3.8468196    
    107500   0.2814        -4.8849563      1.042618      -3.8423383    
    107550   0.2814        -4.8677426      1.0485018     -3.8192407    
    107600   0.2814        -4.8867893      1.0233254     -3.8634639    
    107650   0.2814        -4.8830224      1.0441993     -3.8388231    
    107700   0.2814        -4.8944015      1.0685903     -3.8258111    
    107750   0.2814        -4.9029963      1.0520404     -3.850956     
    107800   0.2814        -4.8966713      1.0353814     -3.86129      
    107850   0.2814        -4.8988544      1.0674317     -3.8314228    
    107900   0.2814        -4.9020223      1.0505953     -3.851427     
    107950   0.2814        -4.892327       1.059735      -3.8325919    
    108000   0.2814        -4.8999995      1.0337463     -3.8662532    
    108050   0.2814        -4.8977587      1.0490725     -3.8486862    
    108100   0.2814        -4.9168828      1.0417106     -3.8751722    
    108150   0.2814        -4.9053469      1.0535089     -3.851838     
    108200   0.2814        -4.908749       1.0542545     -3.8544945    
    108250   0.2814        -4.8996402      1.0400306     -3.8596096    
    108300   0.2814        -4.892548       1.0652093     -3.8273387    
    108350   0.2814        -4.9061526      1.0705031     -3.8356495    
    108400   0.2814        -4.9121841      1.0534736     -3.8587105    
    108450   0.2814        -4.9170111      1.0710699     -3.8459412    
    108500   0.2814        -4.8918799      1.0501565     -3.8417234    
    108550   0.2814        -4.9146685      1.0129803     -3.9016882    
    108600   0.2814        -4.8925776      1.0320641     -3.8605136    
    108650   0.2814        -4.9132939      1.0688311     -3.8444628    
    108700   0.2814        -4.9035102      1.0578791     -3.8456312    
    108750   0.2814        -4.9051018      1.0530267     -3.8520751    
    108800   0.2814        -4.9094294      1.0396663     -3.8697631    
    108850   0.2814        -4.9032897      1.0526847     -3.850605     
    108900   0.2814        -4.9089917      1.0435289     -3.8654628    
    108950   0.2814        -4.9032523      1.0437235     -3.8595288    
    109000   0.2814        -4.9211207      1.0713788     -3.8497418    
    109050   0.2814        -4.9075425      1.0433154     -3.8642272    
    109100   0.2814        -4.9120588      1.0596019     -3.8524569    
    109150   0.2814        -4.938824       1.0470615     -3.8917626    
    109200   0.2814        -4.9110037      1.029022      -3.8819817    
    109250   0.2814        -4.9240709      1.0329523     -3.8911186    
    109300   0.2814        -4.9263913      1.0527536     -3.8736378    
    109350   0.2814        -4.931557       1.0797189     -3.8518381    
    109400   0.2814        -4.933263       1.0455522     -3.8877108    
    109450   0.2814        -4.9221398      1.0530504     -3.8690893    
    109500   0.2814        -4.9311633      1.0541294     -3.8770339    
    109550   0.2814        -4.9468035      1.0340027     -3.9128008    
    109600   0.2814        -4.9288412      1.0476328     -3.8812083    
    109650   0.2814        -4.9386924      1.0342395     -3.9044528    
    109700   0.2814        -4.9392521      1.0498849     -3.8893672    
    109750   0.2814        -4.9335939      1.0421443     -3.8914495    
    109800   0.2814        -4.9040003      1.0459456     -3.8580547    
    109850   0.2814        -4.930541       1.0320139     -3.8985271    
    109900   0.2814        -4.9397846      1.0535667     -3.8862179    
    109950   0.2814        -4.9376986      1.0628249     -3.8748737    
    110000   0.2814        -4.9403014      1.0220451     -3.9182563    
    110050   0.2814        -4.9270589      1.04437       -3.8826889    
    110100   0.2814        -4.9154283      1.0325919     -3.8828364    
    110150   0.2814        -4.9193224      1.0644086     -3.8549138    
    110200   0.2814        -4.9001156      1.0736965     -3.8264191    
    110250   0.2814        -4.9057543      1.0642039     -3.8415504    
    110300   0.2814        -4.9065154      1.0394145     -3.8671009    
    110350   0.2814        -4.9040105      1.0131395     -3.8908709    
    110400   0.2814        -4.9158762      1.0497534     -3.8661228    
    110450   0.2814        -4.8995898      1.0578847     -3.8417051    
    110500   0.2814        -4.9255219      1.0538687     -3.8716532    
    110550   0.2814        -4.9219471      1.0474508     -3.8744964    
    110600   0.2814        -4.8946742      1.0288681     -3.8658061    
    110650   0.2814        -4.9220215      1.0545818     -3.8674397    
    110700   0.2814        -4.93823        1.0342082     -3.9040217    
    110750   0.2814        -4.9032856      1.0503203     -3.8529653    
    110800   0.2814        -4.9183877      1.0611329     -3.8572547    
    110850   0.2814        -4.9485321      1.0530099     -3.8955223    
    110900   0.2814        -4.9385896      1.0353646     -3.9032249    
    110950   0.2814        -4.9552866      1.0307095     -3.9245771    
    111000   0.2814        -4.9699694      1.0467439     -3.9232255    
    111050   0.2814        -4.9430726      1.0645713     -3.8785013    
    111100   0.2814        -4.9396031      1.0461904     -3.8934127    
    111150   0.2814        -4.9493775      1.0538686     -3.8955089    
    111200   0.2814        -4.9509165      1.0561335     -3.894783     
    111250   0.2814        -4.936435       1.0565391     -3.8798959    
    111300   0.2814        -4.9475171      1.0474998     -3.9000173    
    111350   0.2814        -4.929467       1.033878      -3.8955889    
    111400   0.2814        -4.9479604      1.060954      -3.8870064    
    111450   0.2814        -4.9326614      1.0706962     -3.8619652    
    111500   0.2814        -4.9174388      1.0506052     -3.8668336    
    111550   0.2814        -4.9314281      1.0609592     -3.8704689    
    111600   0.2814        -4.9244976      1.0590048     -3.8654928    
    111650   0.2814        -4.9219111      1.0537064     -3.8682047    
    111700   0.2814        -4.9259106      1.0378419     -3.8880687    
    111750   0.2814        -4.9252037      1.0431085     -3.8820952    
    111800   0.2814        -4.9287471      1.0507612     -3.8779859    
    111850   0.2814        -4.9350525      1.0560738     -3.8789787    
    111900   0.2814        -4.9223701      1.0510365     -3.8713336    
    111950   0.2814        -4.94034        1.0342267     -3.9061132    
    112000   0.2814        -4.9281513      1.0695944     -3.858557     
    112050   0.2814        -4.9370464      1.0523383     -3.8847081    
    112100   0.2814        -4.9358737      1.0496532     -3.8862206    
    112150   0.2814        -4.935758       1.044577      -3.8911811    
    112200   0.2814        -4.9393982      1.0195525     -3.9198457    
    112250   0.2814        -4.9491912      1.0406093     -3.9085819    
    112300   0.2814        -4.9507804      1.0573888     -3.8933916    
    112350   0.2814        -4.9294893      1.052947      -3.8765423    
    112400   0.2814        -4.9123849      1.0268576     -3.8855273    
    112450   0.2814        -4.9439837      1.0536708     -3.8903128    
    112500   0.2814        -4.9094478      1.0716503     -3.8377974    
    112550   0.2814        -4.9095267      1.0782775     -3.8312492    
    112600   0.2814        -4.9296618      1.0743294     -3.8553324    
    112650   0.2814        -4.9252522      1.0231122     -3.90214      
    112700   0.2814        -4.9203452      1.0491021     -3.8712431    
    112750   0.2814        -4.907327       1.0270202     -3.8803068    
    112800   0.2814        -4.906508       1.0500395     -3.8564686    
    112850   0.2814        -4.9081323      1.038218      -3.8699142    
    112900   0.2814        -4.8869754      1.0268594     -3.860116     
    112950   0.2814        -4.9050064      1.0469061     -3.8581003    
    113000   0.2814        -4.8997302      1.0417953     -3.8579349    
    113050   0.2814        -4.876651       1.0592622     -3.8173888    
    113100   0.2814        -4.8804407      1.0308984     -3.8495423    
    113150   0.2814        -4.9128132      1.03649       -3.8763232    
    113200   0.2814        -4.9116668      1.0649925     -3.8466743    
    113250   0.2814        -4.8962593      1.047081      -3.8491783    
    113300   0.2814        -4.9344512      1.0364693     -3.897982     
    113350   0.2814        -4.9020259      1.0617672     -3.8402587    
    113400   0.2814        -4.9045864      1.0848965     -3.8196899    
    113450   0.2814        -4.9303549      1.052555      -3.8777999    
    113500   0.2814        -4.9429373      1.0360495     -3.9068877    
    113550   0.2814        -4.9237975      1.0641488     -3.8596487    
    113600   0.2814        -4.9266517      1.0317242     -3.8949275    
    113650   0.2814        -4.929782       1.0269737     -3.9028083    
    113700   0.2814        -4.9271463      1.060508      -3.8666383    
    113750   0.2814        -4.9391606      1.0375517     -3.9016088    
    113800   0.2814        -4.9455395      1.0483501     -3.8971894    
    113850   0.2814        -4.9423281      1.0561914     -3.8861368    
    113900   0.2814        -4.9480935      1.0223219     -3.9257716    
    113950   0.2814        -4.9777827      1.0278683     -3.9499143    
    114000   0.2814        -4.9343752      1.0427409     -3.8916343    
    114050   0.2814        -4.9543619      1.0483581     -3.9060038    
    114100   0.2814        -4.9562162      1.0490686     -3.9071476    
    114150   0.2814        -4.9444837      1.0379615     -3.9065222    
    114200   0.2814        -4.93359        1.0529426     -3.8806474    
    114250   0.2814        -4.9410991      1.034218      -3.9068811    
    114300   0.2814        -4.9471301      1.0554971     -3.891633     
    114350   0.2814        -4.9285813      1.0576919     -3.8708893    
    114400   0.2814        -4.9462077      1.0628978     -3.8833099    
    114450   0.2814        -4.9417003      1.047946      -3.8937543    
    114500   0.2814        -4.9550193      1.0424975     -3.9125218    
    114550   0.2814        -4.935437       1.0630775     -3.8723595    
    114600   0.2814        -4.9191109      1.0622817     -3.8568292    
    114650   0.2814        -4.9282172      1.0833671     -3.8448501    
    114700   0.2814        -4.9370362      1.0594444     -3.8775917    
    114750   0.2814        -4.9367295      1.0360265     -3.900703     
    114800   0.2814        -4.9179264      1.0403002     -3.8776262    
    114850   0.2814        -4.9248187      1.0417705     -3.8830482    
    114900   0.2814        -4.8991635      1.0506005     -3.848563     
    114950   0.2814        -4.9146164      1.0520789     -3.8625375    
    115000   0.2814        -4.892161       1.0600858     -3.8320752    
    115050   0.2814        -4.8943762      1.0273894     -3.8669869    
    115100   0.2814        -4.9036494      1.0404463     -3.863203     
    115150   0.2814        -4.9101277      1.0398507     -3.8702769    
    115200   0.2814        -4.9033328      1.0343088     -3.869024     
    115250   0.2814        -4.9116297      1.0328305     -3.8787993    
    115300   0.2814        -4.91406        1.0496961     -3.8643639    
    115350   0.2814        -4.9092791      1.0606682     -3.8486108    
    115400   0.2814        -4.9087041      1.0394599     -3.8692442    
    115450   0.2814        -4.9098676      1.0141728     -3.8956948    
    115500   0.2814        -4.8959389      1.060133      -3.8358059    
    115550   0.2814        -4.9168416      1.0448444     -3.8719971    
    115600   0.2814        -4.9048173      1.0425263     -3.862291     
    115650   0.2814        -4.941002       1.04942       -3.891582     
    115700   0.2814        -4.9325202      1.0723338     -3.8601864    
    115750   0.2814        -4.9449073      1.0549077     -3.8899995    
    115800   0.2814        -4.9223389      1.0533823     -3.8689566    
    115850   0.2814        -4.9329202      1.0497277     -3.8831924    
    115900   0.2814        -4.9318258      1.0551037     -3.8767221    
    115950   0.2814        -4.9322867      1.0309496     -3.9013371    
    116000   0.2814        -4.9218269      1.0550869     -3.86674      
    116050   0.2814        -4.9079203      1.0410023     -3.8669181    
    116100   0.2814        -4.9076794      1.0592543     -3.8484251    
    116150   0.2814        -4.9020404      1.0695754     -3.832465     
    116200   0.2814        -4.9122222      1.067927      -3.8442952    
    116250   0.2814        -4.9033515      1.0322549     -3.8710966    
    116300   0.2814        -4.9101518      1.0572687     -3.852883     
    116350   0.2814        -4.9073861      1.0435574     -3.8638287    
    116400   0.2814        -4.9175398      1.0413029     -3.8762369    
    116450   0.2814        -4.914762       1.0436831     -3.8710789    
    116500   0.2814        -4.9175859      1.0572426     -3.8603433    
    116550   0.2814        -4.9013853      1.0706459     -3.8307394    
    116600   0.2814        -4.9196275      1.050545      -3.8690825    
    116650   0.2814        -4.9250332      1.065582      -3.8594513    
    116700   0.2814        -4.9218696      1.0474875     -3.8743821    
    116750   0.2814        -4.9147157      1.0509941     -3.8637216    
    116800   0.2814        -4.9263167      1.0847088     -3.8416079    
    116850   0.2814        -4.9392876      1.0704673     -3.8688203    
    116900   0.2814        -4.911329       1.0327901     -3.8785389    
    116950   0.2814        -4.9421669      1.06777       -3.874397     
    117000   0.2814        -4.90923        1.0319582     -3.8772717    
    117050   0.2814        -4.9286712      1.070462      -3.8582091    
    117100   0.2814        -4.9104587      1.0630586     -3.8474001    
    117150   0.2814        -4.8905323      1.0402371     -3.8502953    
    117200   0.2814        -4.9001569      1.0374847     -3.8626722    
    117250   0.2814        -4.9170879      1.0431269     -3.873961     
    117300   0.2814        -4.9052935      1.0381985     -3.867095     
    117350   0.2814        -4.9059354      1.0351944     -3.870741     
    117400   0.2814        -4.8999206      1.0542745     -3.8456461    
    117450   0.2814        -4.8833001      1.0720528     -3.8112473    
    117500   0.2814        -4.8901992      1.0576031     -3.8325961    
    117550   0.2814        -4.8819021      1.0356675     -3.8462345    
    117600   0.2814        -4.8753868      1.0504811     -3.8249057    
    117650   0.2814        -4.8809291      1.027083      -3.8538461    
    117700   0.2814        -4.8954868      1.0324638     -3.8630229    
    117750   0.2814        -4.880062       1.0709479     -3.8091141    
    117800   0.2814        -4.8837613      1.0604675     -3.8232938    
    117850   0.2814        -4.8895785      1.0508876     -3.8386909    
    117900   0.2814        -4.8692407      1.0210226     -3.8482181    
    117950   0.2814        -4.8770071      1.0805693     -3.7964377    
    118000   0.2814        -4.8550879      1.0716992     -3.7833887    
    118050   0.2814        -4.8795567      1.0764604     -3.8030963    
    118100   0.2814        -4.8805438      1.0398859     -3.8406579    
    118150   0.2814        -4.8774147      1.0486269     -3.8287879    
    118200   0.2814        -4.8935582      1.0434573     -3.8501009    
    118250   0.2814        -4.9059357      1.0435393     -3.8623964    
    118300   0.2814        -4.9030882      1.0565595     -3.8465287    
    118350   0.2814        -4.9044358      1.0571587     -3.847277     
    118400   0.2814        -4.9160808      1.0523333     -3.8637475    
    118450   0.2814        -4.9148476      1.0312881     -3.8835596    
    118500   0.2814        -4.9333511      1.0504804     -3.8828707    
    118550   0.2814        -4.938573       1.0629627     -3.8756103    
    118600   0.2814        -4.9284633      1.060621      -3.8678423    
    118650   0.2814        -4.9213716      1.0649964     -3.8563752    
    118700   0.2814        -4.9319092      1.0394531     -3.8924561    
    118750   0.2814        -4.9372129      1.0477735     -3.8894394    
    118800   0.2814        -4.9360467      1.0460051     -3.8900416    
    118850   0.2814        -4.9469746      1.052958      -3.8940166    
    118900   0.2814        -4.9548686      1.0595711     -3.8952974    
    118950   0.2814        -4.9515009      1.0628365     -3.8886644    
    119000   0.2814        -4.9313645      1.0393466     -3.8920179    
    119050   0.2814        -4.9391803      1.054032      -3.8851483    
    119100   0.2814        -4.9109924      1.0544245     -3.8565679    
    119150   0.2814        -4.9511793      1.0150678     -3.9361115    
    119200   0.2814        -4.9457796      1.072508      -3.8732716    
    119250   0.2814        -4.9409762      1.0614286     -3.8795476    
    119300   0.2814        -4.8962641      1.0570486     -3.8392155    
    119350   0.2814        -4.9121514      1.040819      -3.8713323    
    119400   0.2814        -4.9194891      1.0316084     -3.8878807    
    119450   0.2814        -4.917441       1.0619774     -3.8554636    
    119500   0.2814        -4.9065002      1.0467396     -3.8597606    
    119550   0.2814        -4.9068558      1.072774      -3.8340818    
    119600   0.2814        -4.8982345      1.0375751     -3.8606594    
    119650   0.2814        -4.9209627      1.0412255     -3.8797372    
    119700   0.2814        -4.9077229      1.0660812     -3.8416417    
    119750   0.2814        -4.9010944      1.0645801     -3.8365143    
    119800   0.2814        -4.8929702      1.0398447     -3.8531255    
    119850   0.2814        -4.9015417      1.0462904     -3.8552513    
    119900   0.2814        -4.9101893      1.0666642     -3.8435251    
    119950   0.2814        -4.9109052      1.071708      -3.8391971    
    120000   0.2814        -4.9191359      1.0498225     -3.8693133    
Loop time of 380.274 on 8 procs for 100000 steps with 4000 atoms

Performance: 113602.310 tau/day, 262.968 timesteps/s, 1.052 Matom-step/s
99.1% CPU use with 4 MPI tasks x 2 OpenMP threads

MPI task timing breakdown:
Section |  min time  |  avg time  |  max time  |%varavg| %total
---------------------------------------------------------------
Pair    | 0.21097    | 109.23     | 228.79     |1045.5 | 28.72
Neigh   | 0.29342    | 41.213     | 85.672     | 638.4 | 10.84
Comm    | 36.281     | 196.41     | 347.09     |1047.8 | 51.65
Output  | 8.3529     | 9.9856     | 11.9       |  41.8 |  2.63
Modify  | 15.397     | 18.379     | 26.9       | 114.8 |  4.83
Other   |            | 5.062      |            |       |  1.33

Nlocal:           1000 ave        2080 max          29 min
Histogram: 2 0 0 0 0 0 0 0 1 1
Nghost:        1357.75 ave        2701 max          48 min
Histogram: 2 0 0 0 0 0 0 0 0 2
Neighs:        31923.2 ave       68608 max          14 min
Histogram: 2 0 0 0 0 0 0 0 1 1

Total # of neighbors = 127693
Ave neighs/atom = 31.92325
Neighbor list builds = 11737
Dangerous builds = 0
Total wall time: 0:07:39
