# Equilibrio L-V con potencial Lennard-Jones

units           lj
atom_style      atomic

# Crear caja inicial (10x10x10) con red FCC y replicar en X
lattice         fcc 0.8442
Lattice spacing in x,y,z = 1.6795962 1.6795962 1.6795962
region          box block 0 10 0 10 0 10
create_box      1 box
Created orthogonal box = (0 0 0) to (16.795962 16.795962 16.795962)
  1 by 1 by 1 MPI processor grid
create_atoms    1 box
Created 4000 atoms
  using lattice units in orthogonal box = (0 0 0) to (16.795962 16.795962 16.795962)
  create_atoms CPU = 0.007 seconds
replicate       3 1 1
Replication is creating a 3x1x1 = 3 times larger system...
  orthogonal box = (0 0 0) to (50.387886 16.795962 16.795962)
  1 by 1 by 1 MPI processor grid
  12000 atoms
  replicate CPU = 0.019 seconds

# Borrar las regiones laterales (sólo conservar el centro)
group           extremos id <> 1 4000
4000 atoms in group extremos
group           extremos id <> 8001 12000
8000 atoms in group extremos
delete_atoms    group extremos
Deleted 8000 atoms, new total = 4000

mass            1 1.0
neigh_modify    delay 5

# Inicialización de velocidades
velocity        all create 0.7 87287

# Interacción Lennard-Jones
pair_style      lj/cut 2.5
pair_coeff      1 1 1.0 1.0

# Temperatura de simulación (editable)
variable        T equal 1.0

# Primera etapa: dinámica NVE
fix             f1 all nve

compute         tempi all temp
compute         press all pressure tempi

# Registro de temperatura y presión
fix             f_temp all ave/time 10 10 100 c_tempi file temperatura_${T}.out
fix             f_temp all ave/time 10 10 100 c_tempi file temperatura_1.out
fix             f_press all ave/time 10 10 100 c_press file prico_${T}.out
fix             f_press all ave/time 10 10 100 c_press file prico_1.out

# Registro del tensor de presión completo
fix             f_tensor all ave/time 10 10 100 c_press[1] c_press[2] c_press[3] c_press[4] c_press[5] c_press[6] file ptensor_${T}.out
fix             f_tensor all ave/time 10 10 100 c_press[1] c_press[2] c_press[3] c_press[4] c_press[5] c_press[6] file ptensor_1.out

# Dump inicial para observar evolución
dump            d1 all atom 100 dump_${T}.melt
dump            d1 all atom 100 dump_1.melt

thermo_style    custom step density pe ke etotal
thermo          50
timestep        0.005

# Corrida inicial para estabilización
run             20000
Generated 0 of 0 mixed pair_coeff terms from geometric mixing rule
Neighbor list info ...
  update: every = 1 steps, delay = 5 steps, check = yes
  max neighbors/atom: 2000, page size: 100000
  master list distance cutoff = 2.8
  ghost atom cutoff = 2.8
  binsize = 1.4, bins = 36 12 12
  1 neighbor lists, perpetual/occasional/extra = 1 0 0
  (1) pair lj/cut, perpetual
      attributes: half, newton on
      pair build: half/bin/atomonly/newton
      stencil: half/bin/3d
      bin: standard
Per MPI rank memory allocation (min/avg/max) = 3.654 | 3.654 | 3.654 Mbytes
   Step        Density         PotEng         KinEng         TotEng    
         0   0.2814        -6.5223221      1.0497375     -5.4725846    
        50   0.2814        -6.0033117      0.52370404    -5.4796077    
       100   0.2814        -6.1375609      0.65155539    -5.4860055    
       150   0.2814        -6.2222601      0.72811482    -5.4941453    
       200   0.2814        -6.3128572      0.81021549    -5.5026417    
       250   0.2814        -6.4033481      0.89155994    -5.5117882    
       300   0.2814        -6.4578205      0.93691497    -5.5209056    
       350   0.2814        -6.4746232      0.94739093    -5.5272323    
       400   0.2814        -6.4765654      0.94545393    -5.5311115    
       450   0.2814        -6.4993393      0.96466721    -5.534672     
       500   0.2814        -6.4927093      0.95761728    -5.535092     
       550   0.2814        -6.488591       0.95603268    -5.5325584    
       600   0.2814        -6.4745944      0.94573743    -5.528857     
       650   0.2814        -6.4481969      0.92462357    -5.5235734    
       700   0.2814        -6.4013034      0.88536112    -5.5159422    
       750   0.2814        -6.3256732      0.81913084    -5.5065424    
       800   0.2814        -6.2441317      0.74537345    -5.4987582    
       850   0.2814        -6.2014507      0.70904717    -5.4924036    
       900   0.2814        -6.1441997      0.65577476    -5.4884249    
       950   0.2814        -6.1343948      0.64631211    -5.4880827    
      1000   0.2814        -6.1476607      0.6579034     -5.4897573    
      1050   0.2814        -6.1817798      0.68843283    -5.493347     
      1100   0.2814        -6.2449187      0.74593461    -5.4989841    
      1150   0.2814        -6.320276       0.813861      -5.506415     
      1200   0.2814        -6.3768879      0.86213646    -5.5147514    
      1250   0.2814        -6.4193851      0.89723283    -5.5221523    
      1300   0.2814        -6.4516783      0.92408558    -5.5275927    
      1350   0.2814        -6.4754428      0.94466581    -5.530777     
      1400   0.2814        -6.4607324      0.92860812    -5.5321243    
      1450   0.2814        -6.4575809      0.92558177    -5.5319991    
      1500   0.2814        -6.4550821      0.92526366    -5.5298185    
      1550   0.2814        -6.4381051      0.91246684    -5.5256382    
      1600   0.2814        -6.4119338      0.89199278    -5.519941     
      1650   0.2814        -6.3682358      0.85610769    -5.5121281    
      1700   0.2814        -6.3073517      0.8021656     -5.5051861    
      1750   0.2814        -6.2377876      0.73887925    -5.4989083    
      1800   0.2814        -6.2118129      0.71647671    -5.4953362    
      1850   0.2814        -6.1793086      0.68607383    -5.4932348    
      1900   0.2814        -6.1917497      0.6980242     -5.4937255    
      1950   0.2814        -6.2201969      0.72371075    -5.4964862    
      2000   0.2814        -6.2583047      0.75810375    -5.500201     
      2050   0.2814        -6.3073392      0.80236998    -5.5049693    
      2100   0.2814        -6.3614147      0.84915042    -5.5122643    
      2150   0.2814        -6.4132521      0.89410767    -5.5191444    
      2200   0.2814        -6.4095586      0.88462194    -5.5249367    
      2250   0.2814        -6.4386379      0.91031299    -5.5283249    
      2300   0.2814        -6.4564451      0.92644466    -5.5300004    
      2350   0.2814        -6.4419426      0.9135352     -5.5284074    
      2400   0.2814        -6.4376465      0.91093153    -5.526715     
      2450   0.2814        -6.4063883      0.88380193    -5.5225863    
      2500   0.2814        -6.3821591      0.86642132    -5.5157378    
      2550   0.2814        -6.3336194      0.82375132    -5.5098681    
      2600   0.2814        -6.2892524      0.78448073    -5.5047716    
      2650   0.2814        -6.2554929      0.7548409     -5.500652     
      2700   0.2814        -6.2379681      0.74029358    -5.4976745    
      2750   0.2814        -6.2069979      0.71072056    -5.4962773    
      2800   0.2814        -6.2205221      0.72286137    -5.4976607    
      2850   0.2814        -6.2568394      0.75691908    -5.4999203    
      2900   0.2814        -6.2874583      0.78409374    -5.5033646    
      2950   0.2814        -6.3154406      0.80690809    -5.5085326    
      3000   0.2814        -6.3750346      0.86021108    -5.5148235    
      3050   0.2814        -6.406571       0.88586467    -5.5207063    
      3100   0.2814        -6.4101373      0.88560005    -5.5245372    
      3150   0.2814        -6.4361282      0.90940539    -5.5267228    
      3200   0.2814        -6.4243008      0.89716675    -5.527134     
      3250   0.2814        -6.4296221      0.90318205    -5.52644      
      3300   0.2814        -6.4196359      0.89588034    -5.5237556    
      3350   0.2814        -6.4017469      0.8816649     -5.520082     
      3400   0.2814        -6.3770327      0.86334611    -5.5136866    
      3450   0.2814        -6.3149436      0.80609662    -5.508847     
      3500   0.2814        -6.2912864      0.78709686    -5.5041895    
      3550   0.2814        -6.2514079      0.75075973    -5.5006482    
      3600   0.2814        -6.2441217      0.74407758    -5.5000441    
      3650   0.2814        -6.2333961      0.73407428    -5.4993219    
      3700   0.2814        -6.247009       0.74695507    -5.5000539    
      3750   0.2814        -6.2725031      0.77065399    -5.5018491    
      3800   0.2814        -6.2939592      0.78814393    -5.5058152    
      3850   0.2814        -6.3354892      0.82442186    -5.5110673    
      3900   0.2814        -6.3585919      0.8424613     -5.5161306    
      3950   0.2814        -6.3951041      0.87469409    -5.52041      
      4000   0.2814        -6.3947062      0.87134651    -5.5233597    
      4050   0.2814        -6.4270475      0.90225746    -5.52479      
      4100   0.2814        -6.4022727      0.87746353    -5.5248092    
      4150   0.2814        -6.4046794      0.88123179    -5.5234476    
      4200   0.2814        -6.4051258      0.88397984    -5.521146     
      4250   0.2814        -6.3816349      0.86369882    -5.5179361    
      4300   0.2814        -6.3612439      0.8476189     -5.513625     
      4350   0.2814        -6.3095724      0.80081866    -5.5087537    
      4400   0.2814        -6.2981005      0.7928831     -5.5052174    
      4450   0.2814        -6.2587925      0.7559685     -5.502824     
      4500   0.2814        -6.2652616      0.76436768    -5.500894     
      4550   0.2814        -6.2431379      0.74227189    -5.500866     
      4600   0.2814        -6.2605426      0.75939299    -5.5011496    
      4650   0.2814        -6.2716573      0.76791645    -5.5037409    
      4700   0.2814        -6.3010091      0.79327935    -5.5077298    
      4750   0.2814        -6.3335903      0.8225035     -5.5110868    
      4800   0.2814        -6.3557023      0.84055579    -5.5151465    
      4850   0.2814        -6.387699       0.86892725    -5.5187718    
      4900   0.2814        -6.3923446      0.87145134    -5.5208933    
      4950   0.2814        -6.3980583      0.87620398    -5.5218543    
      5000   0.2814        -6.3916889      0.86922666    -5.5224622    
      5050   0.2814        -6.3828455      0.86196027    -5.5208852    
      5100   0.2814        -6.3731312      0.85425644    -5.5188747    
      5150   0.2814        -6.367432       0.85100345    -5.5164286    
      5200   0.2814        -6.3518067      0.83845779    -5.513349     
      5250   0.2814        -6.3180117      0.80791769    -5.510094     
      5300   0.2814        -6.3003681      0.79331686    -5.5070513    
      5350   0.2814        -6.2835022      0.7789541     -5.5045481    
      5400   0.2814        -6.2777217      0.77466864    -5.5030531    
      5450   0.2814        -6.2825011      0.77988241    -5.5026187    
      5500   0.2814        -6.2900674      0.7849914     -5.505076     
      5550   0.2814        -6.3085964      0.80329316    -5.5053033    
      5600   0.2814        -6.3253986      0.81739016    -5.5080085    
      5650   0.2814        -6.3410387      0.82933193    -5.5117068    
      5700   0.2814        -6.3568262      0.84246773    -5.5143585    
      5750   0.2814        -6.3688762      0.8506964     -5.5181798    
      5800   0.2814        -6.3777037      0.85898882    -5.5187149    
      5850   0.2814        -6.3789633      0.85856366    -5.5203996    
      5900   0.2814        -6.391382       0.87138238    -5.5199996    
      5950   0.2814        -6.3655703      0.84658423    -5.5189861    
      6000   0.2814        -6.3641848      0.84671679    -5.5174681    
      6050   0.2814        -6.3501477      0.83581515    -5.5143326    
      6100   0.2814        -6.3228766      0.81147335    -5.5114033    
      6150   0.2814        -6.3304067      0.82175726    -5.5086494    
      6200   0.2814        -6.2958348      0.78961057    -5.5062243    
      6250   0.2814        -6.2796115      0.7744412     -5.5051703    
      6300   0.2814        -6.2777114      0.77286805    -5.5048433    
      6350   0.2814        -6.275941       0.77161571    -5.5043253    
      6400   0.2814        -6.2859283      0.77986876    -5.5060596    
      6450   0.2814        -6.3052059      0.7972094     -5.5079965    
      6500   0.2814        -6.3067104      0.79605338    -5.5106571    
      6550   0.2814        -6.3382134      0.82486787    -5.5133456    
      6600   0.2814        -6.3591205      0.8434839     -5.5156366    
      6650   0.2814        -6.369385       0.85108196    -5.518303     
      6700   0.2814        -6.3665834      0.84729165    -5.5192917    
      6750   0.2814        -6.3709371      0.85108847    -5.5198486    
      6800   0.2814        -6.3743102      0.85500153    -5.5193087    
      6850   0.2814        -6.3583656      0.84056869    -5.5177969    
      6900   0.2814        -6.3628472      0.84745872    -5.5153885    
      6950   0.2814        -6.3437409      0.82964438    -5.5140965    
      7000   0.2814        -6.321076       0.80995454    -5.5111215    
      7050   0.2814        -6.3015721      0.79386013    -5.507712     
      7100   0.2814        -6.2963514      0.79044702    -5.5059044    
      7150   0.2814        -6.2809406      0.77604983    -5.5048908    
      7200   0.2814        -6.2767189      0.77212591    -5.504593     
      7250   0.2814        -6.2789773      0.77470506    -5.5042723    
      7300   0.2814        -6.284717       0.77896747    -5.5057495    
      7350   0.2814        -6.2962777      0.7882105     -5.5080672    
      7400   0.2814        -6.3233975      0.81288785    -5.5105096    
      7450   0.2814        -6.3324638      0.8198254     -5.5126384    
      7500   0.2814        -6.3540992      0.8384192     -5.5156801    
      7550   0.2814        -6.3629029      0.84527068    -5.5176322    
      7600   0.2814        -6.3639991      0.84529541    -5.5187037    
      7650   0.2814        -6.3802139      0.86141792    -5.518796     
      7700   0.2814        -6.3612945      0.84283172    -5.5184628    
      7750   0.2814        -6.3622581      0.84455536    -5.5177027    
      7800   0.2814        -6.3481906      0.83256477    -5.5156258    
      7850   0.2814        -6.3427628      0.83039098    -5.5123718    
      7900   0.2814        -6.3146512      0.80412221    -5.510529     
      7950   0.2814        -6.3077563      0.79932423    -5.5084321    
      8000   0.2814        -6.2882137      0.78189983    -5.5063138    
      8050   0.2814        -6.2876634      0.78225348    -5.5054099    
      8100   0.2814        -6.2853775      0.78005053    -5.505327     
      8150   0.2814        -6.2789813      0.77326704    -5.5057143    
      8200   0.2814        -6.2930688      0.78594983    -5.507119     
      8250   0.2814        -6.3004702      0.79177473    -5.5086955    
      8300   0.2814        -6.3320943      0.82103267    -5.5110616    
      8350   0.2814        -6.334503       0.82039189    -5.5141111    
      8400   0.2814        -6.3599913      0.8443499     -5.5156414    
      8450   0.2814        -6.3614785      0.84397201    -5.5175065    
      8500   0.2814        -6.3723731      0.85414996    -5.5182231    
      8550   0.2814        -6.3627325      0.84477132    -5.5179611    
      8600   0.2814        -6.3655411      0.84835395    -5.5171871    
      8650   0.2814        -6.3542439      0.8379688     -5.5162751    
      8700   0.2814        -6.3534438      0.83913009    -5.5143137    
      8750   0.2814        -6.3349787      0.82214585    -5.5128329    
      8800   0.2814        -6.3331199      0.82247855    -5.5106413    
      8850   0.2814        -6.3202065      0.81160516    -5.5086014    
      8900   0.2814        -6.3020529      0.79445033    -5.5076026    
      8950   0.2814        -6.2906163      0.78374883    -5.5068675    
      9000   0.2814        -6.309468       0.8018766     -5.5075914    
      9050   0.2814        -6.3034187      0.79511136    -5.5083073    
      9100   0.2814        -6.3152366      0.80601527    -5.5092213    
      9150   0.2814        -6.3191245      0.80817145    -5.5109531    
      9200   0.2814        -6.3433373      0.83025078    -5.5130865    
      9250   0.2814        -6.3482208      0.83358791    -5.5146329    
      9300   0.2814        -6.3500195      0.8343537     -5.5156658    
      9350   0.2814        -6.3536839      0.83747043    -5.5162135    
      9400   0.2814        -6.3499885      0.83324379    -5.5167448    
      9450   0.2814        -6.3599062      0.84363609    -5.5162701    
      9500   0.2814        -6.3517721      0.83636837    -5.5154037    
      9550   0.2814        -6.3570526      0.84223918    -5.5148135    
      9600   0.2814        -6.3390589      0.82585555    -5.5132034    
      9650   0.2814        -6.3398471      0.82793267    -5.5119145    
      9700   0.2814        -6.3384687      0.8278569     -5.5106118    
      9750   0.2814        -6.3158734      0.80659141    -5.509282     
      9800   0.2814        -6.3158378      0.80660944    -5.5092284    
      9850   0.2814        -6.3145891      0.80582945    -5.5087597    
      9900   0.2814        -6.3228469      0.81411498    -5.5087319    
      9950   0.2814        -6.3121582      0.80279972    -5.5093585    
     10000   0.2814        -6.3037935      0.79345883    -5.5103347    
     10050   0.2814        -6.3407386      0.82858032    -5.5121583    
     10100   0.2814        -6.3238727      0.81122517    -5.5126476    
     10150   0.2814        -6.3426545      0.82800209    -5.5146524    
     10200   0.2814        -6.345599       0.83059554    -5.5150035    
     10250   0.2814        -6.3447112      0.83013282    -5.5145783    
     10300   0.2814        -6.3638071      0.84898981    -5.5148173    
     10350   0.2814        -6.3528834      0.83809342    -5.51479      
     10400   0.2814        -6.3504308      0.83636698    -5.5140639    
     10450   0.2814        -6.343697       0.83061135    -5.5130856    
     10500   0.2814        -6.3346924      0.82234451    -5.5123479    
     10550   0.2814        -6.3376499      0.8255156     -5.5121343    
     10600   0.2814        -6.3332099      0.82178135    -5.5114285    
     10650   0.2814        -6.3214426      0.81097989    -5.5104627    
     10700   0.2814        -6.3090577      0.79926101    -5.5097967    
     10750   0.2814        -6.3189757      0.80955892    -5.5094168    
     10800   0.2814        -6.3151018      0.80520971    -5.509892     
     10850   0.2814        -6.3081983      0.79732829    -5.51087      
     10900   0.2814        -6.3227486      0.8122412     -5.5105074    
     10950   0.2814        -6.3111333      0.79969676    -5.5114366    
     11000   0.2814        -6.3199616      0.80758472    -5.5123769    
     11050   0.2814        -6.3239935      0.81118091    -5.5128126    
     11100   0.2814        -6.3359189      0.82255865    -5.5133602    
     11150   0.2814        -6.3309385      0.81740168    -5.5135369    
     11200   0.2814        -6.3345115      0.82097074    -5.5135408    
     11250   0.2814        -6.3327557      0.81886807    -5.5138877    
     11300   0.2814        -6.3342833      0.8209665     -5.5133168    
     11350   0.2814        -6.3316532      0.81889608    -5.5127571    
     11400   0.2814        -6.3312163      0.81926297    -5.5119533    
     11450   0.2814        -6.3211013      0.80964227    -5.511459     
     11500   0.2814        -6.3303006      0.8194771     -5.5108235    
     11550   0.2814        -6.3082621      0.79750062    -5.5107615    
     11600   0.2814        -6.3250952      0.81463697    -5.5104582    
     11650   0.2814        -6.3158996      0.8053982     -5.5105014    
     11700   0.2814        -6.3383639      0.82707252    -5.5112914    
     11750   0.2814        -6.3236018      0.81179117    -5.5118107    
     11800   0.2814        -6.3320055      0.8195407     -5.5124648    
     11850   0.2814        -6.3151755      0.8024666     -5.5127089    
     11900   0.2814        -6.3346831      0.82141086    -5.5132723    
     11950   0.2814        -6.3361757      0.8227038     -5.5134719    
     12000   0.2814        -6.3385244      0.8251973     -5.5133271    
     12050   0.2814        -6.3363412      0.82330253    -5.5130387    
     12100   0.2814        -6.3295567      0.81671673    -5.51284      
     12150   0.2814        -6.3400864      0.82751509    -5.5125713    
     12200   0.2814        -6.3316233      0.81902774    -5.5125956    
     12250   0.2814        -6.3148428      0.80332298    -5.5115198    
     12300   0.2814        -6.3388916      0.82789543    -5.5109962    
     12350   0.2814        -6.3257925      0.81455229    -5.5112402    
     12400   0.2814        -6.3336696      0.82286937    -5.5108002    
     12450   0.2814        -6.3128916      0.80108176    -5.5118098    
     12500   0.2814        -6.3202207      0.80858501    -5.5116357    
     12550   0.2814        -6.3219251      0.81132338    -5.5106017    
     12600   0.2814        -6.319027       0.80789552    -5.5111315    
     12650   0.2814        -6.3388799      0.82691806    -5.5119618    
     12700   0.2814        -6.3413934      0.82811393    -5.5132795    
     12750   0.2814        -6.342458       0.82980498    -5.512653     
     12800   0.2814        -6.3295904      0.81630267    -5.5132878    
     12850   0.2814        -6.330053       0.8165826     -5.5134704    
     12900   0.2814        -6.3280941      0.81509748    -5.5129967    
     12950   0.2814        -6.3421104      0.82933642    -5.512774     
     13000   0.2814        -6.3457533      0.83356884    -5.5121845    
     13050   0.2814        -6.3234398      0.81140223    -5.5120376    
     13100   0.2814        -6.3305192      0.81832532    -5.5121939    
     13150   0.2814        -6.3354421      0.82392668    -5.5115154    
     13200   0.2814        -6.3281727      0.81757362    -5.510599     
     13250   0.2814        -6.3306078      0.8191756     -5.5114322    
     13300   0.2814        -6.3134833      0.80284376    -5.5106395    
     13350   0.2814        -6.3223027      0.81122728    -5.5110754    
     13400   0.2814        -6.3139851      0.80278362    -5.5112015    
     13450   0.2814        -6.3283843      0.81702922    -5.5113551    
     13500   0.2814        -6.3298375      0.8179272     -5.5119103    
     13550   0.2814        -6.3319891      0.81929109    -5.512698     
     13600   0.2814        -6.3208718      0.80823861    -5.5126332    
     13650   0.2814        -6.3447751      0.83209179    -5.5126834    
     13700   0.2814        -6.3304283      0.81746242    -5.5129659    
     13750   0.2814        -6.3309476      0.81701317    -5.5139344    
     13800   0.2814        -6.3413578      0.82796225    -5.5133955    
     13850   0.2814        -6.3305623      0.81853725    -5.512025     
     13900   0.2814        -6.3312717      0.81826474    -5.513007     
     13950   0.2814        -6.3323393      0.82107581    -5.5112635    
     14000   0.2814        -6.3353276      0.82366712    -5.5116604    
     14050   0.2814        -6.3181385      0.80709759    -5.5110409    
     14100   0.2814        -6.3303886      0.81985314    -5.5105354    
     14150   0.2814        -6.3253836      0.81512853    -5.510255     
     14200   0.2814        -6.3190455      0.80871648    -5.510329     
     14250   0.2814        -6.3192368      0.8085644     -5.5106724    
     14300   0.2814        -6.3197202      0.80872163    -5.5109986    
     14350   0.2814        -6.3102463      0.79785282    -5.5123935    
     14400   0.2814        -6.3171686      0.80454603    -5.5126225    
     14450   0.2814        -6.3252295      0.8128195     -5.51241      
     14500   0.2814        -6.319692       0.80713799    -5.512554     
     14550   0.2814        -6.3212187      0.80875167    -5.512467     
     14600   0.2814        -6.3394192      0.82687948    -5.5125397    
     14650   0.2814        -6.3224285      0.81012959    -5.5122989    
     14700   0.2814        -6.336732       0.82420808    -5.512524     
     14750   0.2814        -6.3160374      0.80400625    -5.5120311    
     14800   0.2814        -6.3292022      0.81738108    -5.5118211    
     14850   0.2814        -6.3264828      0.81453192    -5.5119509    
     14900   0.2814        -6.315635       0.80435545    -5.5112795    
     14950   0.2814        -6.3161866      0.80492291    -5.5112637    
     15000   0.2814        -6.3183284      0.80636567    -5.5119627    
     15050   0.2814        -6.323154       0.81139053    -5.5117635    
     15100   0.2814        -6.3047499      0.79279711    -5.5119528    
     15150   0.2814        -6.3346066      0.82282154    -5.511785     
     15200   0.2814        -6.3251144      0.81283157    -5.5122828    
     15250   0.2814        -6.3291646      0.81705662    -5.512108     
     15300   0.2814        -6.3218485      0.80969788    -5.5121506    
     15350   0.2814        -6.3328836      0.82138129    -5.5115023    
     15400   0.2814        -6.3241445      0.81249972    -5.5116448    
     15450   0.2814        -6.3283017      0.81623007    -5.5120717    
     15500   0.2814        -6.3268215      0.81480079    -5.5120207    
     15550   0.2814        -6.319171       0.80686507    -5.5123059    
     15600   0.2814        -6.329979       0.81801496    -5.5119641    
     15650   0.2814        -6.3254443      0.81345626    -5.5119881    
     15700   0.2814        -6.3307084      0.81799067    -5.5127177    
     15750   0.2814        -6.341128       0.82897302    -5.512155     
     15800   0.2814        -6.3323491      0.82147397    -5.5108751    
     15850   0.2814        -6.3319374      0.82096804    -5.5109693    
     15900   0.2814        -6.3210167      0.80848815    -5.5125286    
     15950   0.2814        -6.3189215      0.80687669    -5.5120448    
     16000   0.2814        -6.3270455      0.81519008    -5.5118555    
     16050   0.2814        -6.3088608      0.79717128    -5.5116896    
     16100   0.2814        -6.312333       0.80023805    -5.512095     
     16150   0.2814        -6.318228       0.80725713    -5.5109709    
     16200   0.2814        -6.3159119      0.80418899    -5.5117229    
     16250   0.2814        -6.3220682      0.81047589    -5.5115923    
     16300   0.2814        -6.331239       0.82028386    -5.5109552    
     16350   0.2814        -6.3158904      0.80500309    -5.5108873    
     16400   0.2814        -6.3278081      0.81620132    -5.5116067    
     16450   0.2814        -6.3280116      0.81561762    -5.5123939    
     16500   0.2814        -6.3173796      0.80514719    -5.5122324    
     16550   0.2814        -6.3206043      0.80887458    -5.5117297    
     16600   0.2814        -6.3277468      0.81537138    -5.5123754    
     16650   0.2814        -6.311833       0.7997809     -5.5120521    
     16700   0.2814        -6.3285977      0.8168337     -5.511764     
     16750   0.2814        -6.3151124      0.80302024    -5.5120922    
     16800   0.2814        -6.3324014      0.82090812    -5.5114933    
     16850   0.2814        -6.2872353      0.7756879     -5.5115475    
     16900   0.2814        -6.3182067      0.80744653    -5.5107602    
     16950   0.2814        -6.3289677      0.81775914    -5.5112085    
     17000   0.2814        -6.3270467      0.81579157    -5.5112551    
     17050   0.2814        -6.3140146      0.80227056    -5.511744     
     17100   0.2814        -6.3233658      0.81201391    -5.5113519    
     17150   0.2814        -6.3095597      0.7980027     -5.511557     
     17200   0.2814        -6.316232       0.80438693    -5.5118451    
     17250   0.2814        -6.3156775      0.80300501    -5.5126725    
     17300   0.2814        -6.3223991      0.80984343    -5.5125556    
     17350   0.2814        -6.3280204      0.81544681    -5.5125736    
     17400   0.2814        -6.3333636      0.82153743    -5.5118261    
     17450   0.2814        -6.3238633      0.81156278    -5.5123005    
     17500   0.2814        -6.3210624      0.80907979    -5.5119826    
     17550   0.2814        -6.3385189      0.82653001    -5.5119889    
     17600   0.2814        -6.3258679      0.81388648    -5.5119815    
     17650   0.2814        -6.3364014      0.82396048    -5.5124409    
     17700   0.2814        -6.3282384      0.81648388    -5.5117545    
     17750   0.2814        -6.3315443      0.81936463    -5.5121797    
     17800   0.2814        -6.32104        0.80954684    -5.5114931    
     17850   0.2814        -6.3264733      0.8149942     -5.5114791    
     17900   0.2814        -6.3316309      0.81995972    -5.5116712    
     17950   0.2814        -6.3228055      0.81047762    -5.5123279    
     18000   0.2814        -6.3138728      0.80200069    -5.5118721    
     18050   0.2814        -6.3337887      0.822306      -5.5114827    
     18100   0.2814        -6.3163023      0.80500139    -5.5113009    
     18150   0.2814        -6.3281985      0.8153584     -5.5128401    
     18200   0.2814        -6.3391961      0.82657442    -5.5126217    
     18250   0.2814        -6.3363235      0.82395662    -5.5123668    
     18300   0.2814        -6.3401447      0.82741467    -5.5127301    
     18350   0.2814        -6.3325749      0.81970975    -5.5128652    
     18400   0.2814        -6.3315661      0.81877862    -5.5127874    
     18450   0.2814        -6.3265818      0.81351544    -5.5130663    
     18500   0.2814        -6.3295133      0.81643015    -5.5130831    
     18550   0.2814        -6.332257       0.81957137    -5.5126856    
     18600   0.2814        -6.3125443      0.80152771    -5.5110166    
     18650   0.2814        -6.3324628      0.82095438    -5.5115084    
     18700   0.2814        -6.3161191      0.80460137    -5.5115177    
     18750   0.2814        -6.3206707      0.80967568    -5.5109951    
     18800   0.2814        -6.326112       0.81582831    -5.5102837    
     18850   0.2814        -6.3285041      0.8177631     -5.510741     
     18900   0.2814        -6.3152589      0.80468823    -5.5105707    
     18950   0.2814        -6.3091241      0.79754239    -5.5115817    
     19000   0.2814        -6.3316837      0.81907603    -5.5126077    
     19050   0.2814        -6.3318219      0.81917177    -5.5126501    
     19100   0.2814        -6.3247268      0.81173613    -5.5129906    
     19150   0.2814        -6.3382835      0.8257919     -5.5124916    
     19200   0.2814        -6.3254122      0.81226597    -5.5131462    
     19250   0.2814        -6.339358       0.82582882    -5.5135292    
     19300   0.2814        -6.3411634      0.82830921    -5.5128542    
     19350   0.2814        -6.3363412      0.82386424    -5.5124769    
     19400   0.2814        -6.3453959      0.83311724    -5.5122786    
     19450   0.2814        -6.3259853      0.81424638    -5.511739     
     19500   0.2814        -6.3188724      0.80744759    -5.5114248    
     19550   0.2814        -6.3210693      0.80977457    -5.5112947    
     19600   0.2814        -6.3238618      0.81243884    -5.5114229    
     19650   0.2814        -6.3239597      0.81271414    -5.5112455    
     19700   0.2814        -6.3156037      0.80447358    -5.5111301    
     19750   0.2814        -6.3092136      0.79828662    -5.5109269    
     19800   0.2814        -6.3320457      0.82152417    -5.5105215    
     19850   0.2814        -6.3274644      0.81605783    -5.5114066    
     19900   0.2814        -6.3404077      0.82875977    -5.5116479    
     19950   0.2814        -6.3382106      0.82599188    -5.5122188    
     20000   0.2814        -6.3268666      0.81373845    -5.5131281    
Loop time of 106.314 on 1 procs for 20000 steps with 4000 atoms

Performance: 81268.363 tau/day, 188.121 timesteps/s, 752.485 katom-step/s
95.1% CPU use with 1 MPI tasks x no OpenMP threads

MPI task timing breakdown:
Section |  min time  |  avg time  |  max time  |%varavg| %total
---------------------------------------------------------------
Pair    | 77.567     | 77.567     | 77.567     |   0.0 | 72.96
Neigh   | 23.852     | 23.852     | 23.852     |   0.0 | 22.44
Comm    | 0.96243    | 0.96243    | 0.96243    |   0.0 |  0.91
Output  | 1.6605     | 1.6605     | 1.6605     |   0.0 |  1.56
Modify  | 1.6583     | 1.6583     | 1.6583     |   0.0 |  1.56
Other   |            | 0.6144     |            |       |  0.58

Nlocal:           4000 ave        4000 max        4000 min
Histogram: 1 0 0 0 0 0 0 0 0 0
Nghost:           3282 ave        3282 max        3282 min
Histogram: 1 0 0 0 0 0 0 0 0 0
Neighs:         151249 ave      151249 max      151249 min
Histogram: 1 0 0 0 0 0 0 0 0 0

Total # of neighbors = 151249
Ave neighs/atom = 37.81225
Neighbor list builds = 2059
Dangerous builds = 0

# Segunda etapa: control de temperatura con NVT
unfix           f1
undump          d1

fix             f2 all nvt temp $T $T 0.01
fix             f2 all nvt temp 1 $T 0.01
fix             f2 all nvt temp 1 1 0.01
dump            d2 all atom 100 dump_${T}.nvt
dump            d2 all atom 100 dump_1.nvt

# Perfil de densidad en X
compute         denx all chunk/atom bin/1d x center 0.1 units box
fix             f_denx all ave/chunk 10 10 100 denx density/mass file densityprofx_${T}.out
fix             f_denx all ave/chunk 10 10 100 denx density/mass file densityprofx_1.out

# Corrida principal
run             100000
Generated 0 of 0 mixed pair_coeff terms from geometric mixing rule
Per MPI rank memory allocation (min/avg/max) = 3.908 | 3.908 | 3.908 Mbytes
   Step        Density         PotEng         KinEng         TotEng    
     20000   0.2814        -6.3268666      0.81373845    -5.5131281    
     20050   0.2814        -5.7459493      1.5024359     -4.2435134    
     20100   0.2814        -5.6948382      1.5725131     -4.1223251    
     20150   0.2814        -5.6028247      1.5054835     -4.0973411    
     20200   0.2814        -5.4850908      1.4918216     -3.9932692    
     20250   0.2814        -5.3443649      1.4805076     -3.8638572    
     20300   0.2814        -5.22183        1.4552792     -3.7665508    
     20350   0.2814        -5.0438005      1.4902691     -3.5535314    
     20400   0.2814        -4.8575977      1.4937804     -3.3638172    
     20450   0.2814        -4.6856773      1.5000914     -3.1855859    
     20500   0.2814        -4.5615441      1.5154243     -3.0461198    
     20550   0.2814        -4.4196785      1.4933141     -2.9263644    
     20600   0.2814        -4.282981       1.5038537     -2.7791273    
     20650   0.2814        -4.1446277      1.496137      -2.6484908    
     20700   0.2814        -4.0135509      1.5241367     -2.4894143    
     20750   0.2814        -3.9290395      1.496208      -2.4328315    
     20800   0.2814        -3.8225598      1.4846474     -2.3379125    
     20850   0.2814        -3.7389195      1.4760656     -2.2628539    
     20900   0.2814        -3.6520405      1.4907698     -2.1612708    
     20950   0.2814        -3.6005866      1.4944202     -2.1061665    
     21000   0.2814        -3.5175248      1.4657959     -2.0517289    
     21050   0.2814        -3.4471109      1.5204628     -1.9266481    
     21100   0.2814        -3.3926628      1.4948089     -1.8978539    
     21150   0.2814        -3.356355       1.5165154     -1.8398396    
     21200   0.2814        -3.3417456      1.5174855     -1.8242601    
     21250   0.2814        -3.2786919      1.4918002     -1.7868917    
     21300   0.2814        -3.2613094      1.509983      -1.7513264    
     21350   0.2814        -3.2131215      1.4923592     -1.7207623    
     21400   0.2814        -3.201973       1.4842673     -1.7177056    
     21450   0.2814        -3.1907281      1.4879587     -1.7027694    
     21500   0.2814        -3.1701412      1.4961496     -1.6739917    
     21550   0.2814        -3.1384392      1.5204936     -1.6179456    
     21600   0.2814        -3.153984       1.5114346     -1.6425494    
     21650   0.2814        -3.1613097      1.4871695     -1.6741401    
     21700   0.2814        -3.1309667      1.4955676     -1.6353991    
     21750   0.2814        -3.1300354      1.4736047     -1.6564306    
     21800   0.2814        -3.1053185      1.4735601     -1.6317584    
     21850   0.2814        -3.0768111      1.503077      -1.5737342    
     21900   0.2814        -3.0730628      1.5099455     -1.5631172    
     21950   0.2814        -3.0551876      1.5027171     -1.5524705    
     22000   0.2814        -3.0416393      1.4945526     -1.5470867    
     22050   0.2814        -3.0399984      1.4934367     -1.5465616    
     22100   0.2814        -3.0440507      1.4825251     -1.5615256    
     22150   0.2814        -3.0248273      1.4704668     -1.5543605    
     22200   0.2814        -3.0148706      1.4645624     -1.5503083    
     22250   0.2814        -3.0198391      1.4807427     -1.5390963    
     22300   0.2814        -3.00925        1.5035041     -1.5057459    
     22350   0.2814        -2.9939522      1.5077166     -1.4862356    
     22400   0.2814        -2.9996338      1.5296889     -1.4699449    
     22450   0.2814        -3.0024382      1.5244195     -1.4780187    
     22500   0.2814        -2.9769735      1.5008498     -1.4761237    
     22550   0.2814        -2.9758681      1.5028296     -1.4730384    
     22600   0.2814        -2.9839294      1.5122612     -1.4716682    
     22650   0.2814        -2.9714095      1.4774095     -1.494        
     22700   0.2814        -2.9517775      1.4988713     -1.4529062    
     22750   0.2814        -2.9707156      1.4737822     -1.4969334    
     22800   0.2814        -2.9642085      1.5081424     -1.4560661    
     22850   0.2814        -2.9730109      1.5145394     -1.4584715    
     22900   0.2814        -2.9329489      1.4940477     -1.4389012    
     22950   0.2814        -2.9545259      1.5259556     -1.4285703    
     23000   0.2814        -2.9472101      1.5220982     -1.4251119    
     23050   0.2814        -2.9438655      1.4877582     -1.4561073    
     23100   0.2814        -2.9247787      1.4842422     -1.4405366    
     23150   0.2814        -2.9301467      1.5041045     -1.4260421    
     23200   0.2814        -2.9232621      1.4927842     -1.4304779    
     23250   0.2814        -2.9313749      1.4635397     -1.4678352    
     23300   0.2814        -2.910694       1.4782523     -1.4324417    
     23350   0.2814        -2.9150072      1.5147968     -1.4002104    
     23400   0.2814        -2.8860904      1.51671       -1.3693803    
     23450   0.2814        -2.8952487      1.5073136     -1.3879351    
     23500   0.2814        -2.8918263      1.5010294     -1.3907968    
     23550   0.2814        -2.8875577      1.4785061     -1.4090516    
     23600   0.2814        -2.879926       1.4977868     -1.3821392    
     23650   0.2814        -2.8632756      1.5282715     -1.3350041    
     23700   0.2814        -2.8518622      1.5087909     -1.3430712    
     23750   0.2814        -2.8685517      1.4900163     -1.3785353    
     23800   0.2814        -2.8745885      1.5068226     -1.3677659    
     23850   0.2814        -2.8737477      1.4892307     -1.384517     
     23900   0.2814        -2.8737052      1.4993161     -1.3743891    
     23950   0.2814        -2.8542715      1.4788911     -1.3753804    
     24000   0.2814        -2.8473765      1.5014176     -1.3459589    
     24050   0.2814        -2.8547691      1.4998249     -1.3549443    
     24100   0.2814        -2.845044       1.4868192     -1.3582248    
     24150   0.2814        -2.8619805      1.5194761     -1.3425044    
     24200   0.2814        -2.83261        1.4899598     -1.3426502    
     24250   0.2814        -2.8257441      1.468547      -1.3571971    
     24300   0.2814        -2.8290319      1.5010441     -1.3279878    
     24350   0.2814        -2.8292856      1.5257418     -1.3035438    
     24400   0.2814        -2.8414203      1.5136424     -1.3277779    
     24450   0.2814        -2.8127041      1.5252973     -1.2874068    
     24500   0.2814        -2.8404891      1.5271948     -1.3132942    
     24550   0.2814        -2.8394947      1.4845352     -1.3549595    
     24600   0.2814        -2.8337654      1.4768263     -1.3569391    
     24650   0.2814        -2.8523087      1.4838046     -1.368504     
     24700   0.2814        -2.8657848      1.478317      -1.3874678    
     24750   0.2814        -2.878141       1.5332839     -1.3448572    
     24800   0.2814        -2.8878841      1.5185047     -1.3693794    
     24850   0.2814        -2.878711       1.4773845     -1.4013265    
     24900   0.2814        -2.8854477      1.4873291     -1.3981186    
     24950   0.2814        -2.8749118      1.51511       -1.3598019    
     25000   0.2814        -2.8615613      1.4710862     -1.390475     
     25050   0.2814        -2.8733835      1.4996031     -1.3737804    
     25100   0.2814        -2.8735428      1.4869398     -1.386603     
     25150   0.2814        -2.8624236      1.4928953     -1.3695283    
     25200   0.2814        -2.8747112      1.5157508     -1.3589604    
     25250   0.2814        -2.8716854      1.4916672     -1.3800182    
     25300   0.2814        -2.8547074      1.5373671     -1.3173403    
     25350   0.2814        -2.8281534      1.524511      -1.3036424    
     25400   0.2814        -2.8352499      1.4917805     -1.3434694    
     25450   0.2814        -2.8358612      1.5253797     -1.3104814    
     25500   0.2814        -2.8266072      1.4771478     -1.3494594    
     25550   0.2814        -2.8188076      1.5378062     -1.2810015    
     25600   0.2814        -2.8190381      1.5033995     -1.3156387    
     25650   0.2814        -2.8297528      1.4870888     -1.342664     
     25700   0.2814        -2.8445165      1.5027169     -1.3417996    
     25750   0.2814        -2.8374558      1.5077282     -1.3297277    
     25800   0.2814        -2.8349893      1.4831402     -1.3518492    
     25850   0.2814        -2.8248274      1.5488768     -1.2759506    
     25900   0.2814        -2.8288847      1.5375635     -1.2913212    
     25950   0.2814        -2.8078833      1.5464399     -1.2614435    
     26000   0.2814        -2.7715861      1.4982539     -1.2733322    
     26050   0.2814        -2.7679452      1.4912755     -1.2766696    
     26100   0.2814        -2.7652527      1.5112089     -1.2540437    
     26150   0.2814        -2.7516779      1.50759       -1.2440879    
     26200   0.2814        -2.7487369      1.5008593     -1.2478776    
     26250   0.2814        -2.7570208      1.5235508     -1.23347      
     26300   0.2814        -2.7554985      1.486296      -1.2692025    
     26350   0.2814        -2.7469558      1.5044893     -1.2424664    
     26400   0.2814        -2.7368355      1.456853      -1.2799825    
     26450   0.2814        -2.7355789      1.4979609     -1.237618     
     26500   0.2814        -2.726769       1.4730729     -1.2536961    
     26550   0.2814        -2.7237955      1.4794101     -1.2443854    
     26600   0.2814        -2.7359111      1.4890974     -1.2468137    
     26650   0.2814        -2.7416351      1.5122543     -1.2293808    
     26700   0.2814        -2.7299566      1.4972458     -1.2327108    
     26750   0.2814        -2.7366061      1.4848901     -1.251716     
     26800   0.2814        -2.739462       1.4904803     -1.2489817    
     26850   0.2814        -2.7263909      1.5026415     -1.2237494    
     26900   0.2814        -2.7283743      1.4831385     -1.2452358    
     26950   0.2814        -2.7174711      1.5011751     -1.2162961    
     27000   0.2814        -2.728546       1.5067567     -1.2217893    
     27050   0.2814        -2.7247016      1.5041727     -1.2205288    
     27100   0.2814        -2.7040513      1.5021182     -1.2019331    
     27150   0.2814        -2.7344014      1.5466666     -1.1877348    
     27200   0.2814        -2.7227372      1.5010216     -1.2217156    
     27250   0.2814        -2.7216332      1.4618024     -1.2598308    
     27300   0.2814        -2.7245123      1.5009124     -1.2235999    
     27350   0.2814        -2.7314271      1.4964977     -1.2349294    
     27400   0.2814        -2.7420707      1.4944095     -1.2476612    
     27450   0.2814        -2.7332421      1.5143709     -1.2188712    
     27500   0.2814        -2.7437547      1.4843858     -1.2593689    
     27550   0.2814        -2.7295805      1.4855823     -1.2439982    
     27600   0.2814        -2.7514         1.4928731     -1.2585269    
     27650   0.2814        -2.7389269      1.5098829     -1.229044     
     27700   0.2814        -2.7264026      1.469486      -1.2569166    
     27750   0.2814        -2.74265        1.5108227     -1.2318273    
     27800   0.2814        -2.7401333      1.5437924     -1.1963409    
     27850   0.2814        -2.7431509      1.4794176     -1.2637334    
     27900   0.2814        -2.7164572      1.531732      -1.1847251    
     27950   0.2814        -2.7297439      1.4835257     -1.2462181    
     28000   0.2814        -2.734563       1.4953149     -1.2392481    
     28050   0.2814        -2.7223006      1.5002309     -1.2220698    
     28100   0.2814        -2.7434532      1.4783992     -1.265054     
     28150   0.2814        -2.7368479      1.4913135     -1.2455344    
     28200   0.2814        -2.7386989      1.5119922     -1.2267068    
     28250   0.2814        -2.7314324      1.4817596     -1.2496728    
     28300   0.2814        -2.7366285      1.4439184     -1.2927101    
     28350   0.2814        -2.7256709      1.4801038     -1.2455671    
     28400   0.2814        -2.7359923      1.5172874     -1.2187049    
     28450   0.2814        -2.7098494      1.534253      -1.1755963    
     28500   0.2814        -2.7076557      1.4870069     -1.2206489    
     28550   0.2814        -2.7124606      1.5059179     -1.2065427    
     28600   0.2814        -2.7173411      1.529406      -1.1879351    
     28650   0.2814        -2.7085722      1.5157268     -1.1928454    
     28700   0.2814        -2.6983466      1.4700665     -1.2282801    
     28750   0.2814        -2.6838782      1.494344      -1.1895342    
     28800   0.2814        -2.6966473      1.5268492     -1.169798     
     28850   0.2814        -2.7079888      1.4882587     -1.2197301    
     28900   0.2814        -2.7258248      1.4863121     -1.2395127    
     28950   0.2814        -2.7149862      1.5397139     -1.1752724    
     29000   0.2814        -2.7292389      1.4750061     -1.2542329    
     29050   0.2814        -2.7262761      1.460905      -1.2653711    
     29100   0.2814        -2.754408       1.5332832     -1.2211248    
     29150   0.2814        -2.7612286      1.4761619     -1.2850668    
     29200   0.2814        -2.7621086      1.5259051     -1.2362035    
     29250   0.2814        -2.7730843      1.5211177     -1.2519666    
     29300   0.2814        -2.7728735      1.5277443     -1.2451292    
     29350   0.2814        -2.7822707      1.4676947     -1.314576     
     29400   0.2814        -2.7854684      1.4989883     -1.2864801    
     29450   0.2814        -2.7848297      1.5036034     -1.2812262    
     29500   0.2814        -2.7739834      1.4927532     -1.2812303    
     29550   0.2814        -2.7911114      1.4983845     -1.2927269    
     29600   0.2814        -2.7906482      1.4945483     -1.2960998    
     29650   0.2814        -2.77496        1.4830758     -1.2918841    
     29700   0.2814        -2.7756295      1.5004728     -1.2751567    
     29750   0.2814        -2.7384027      1.498752      -1.2396507    
     29800   0.2814        -2.7595282      1.5163719     -1.2431563    
     29850   0.2814        -2.7417779      1.4811129     -1.260665     
     29900   0.2814        -2.7659977      1.5207732     -1.2452245    
     29950   0.2814        -2.7368239      1.4694056     -1.2674183    
     30000   0.2814        -2.7612336      1.5039802     -1.2572534    
     30050   0.2814        -2.7543923      1.4986475     -1.2557448    
     30100   0.2814        -2.7325732      1.5182748     -1.2142984    
     30150   0.2814        -2.7529792      1.5112978     -1.2416814    
     30200   0.2814        -2.7479181      1.4836736     -1.2642445    
     30250   0.2814        -2.7312964      1.4972192     -1.2340772    
     30300   0.2814        -2.7366748      1.4790049     -1.2576699    
     30350   0.2814        -2.7289313      1.5293985     -1.1995328    
     30400   0.2814        -2.7213117      1.5309067     -1.190405     
     30450   0.2814        -2.717292       1.4700844     -1.2472077    
     30500   0.2814        -2.7176057      1.515408      -1.2021977    
     30550   0.2814        -2.7122309      1.5030982     -1.2091327    
     30600   0.2814        -2.712743       1.493288      -1.2194549    
     30650   0.2814        -2.7033883      1.5251313     -1.178257     
     30700   0.2814        -2.7161856      1.4634663     -1.2527193    
     30750   0.2814        -2.7000459      1.5165101     -1.1835358    
     30800   0.2814        -2.6964256      1.4888325     -1.2075931    
     30850   0.2814        -2.6948599      1.4860686     -1.2087912    
     30900   0.2814        -2.6825825      1.5085846     -1.1739979    
     30950   0.2814        -2.6984073      1.4681539     -1.2302534    
     31000   0.2814        -2.707782       1.4693311     -1.2384509    
     31050   0.2814        -2.709229       1.5118043     -1.1974248    
     31100   0.2814        -2.6991638      1.4921604     -1.2070034    
     31150   0.2814        -2.7012802      1.4944797     -1.2068005    
     31200   0.2814        -2.7017147      1.4947381     -1.2069765    
     31250   0.2814        -2.700516       1.5291723     -1.1713438    
     31300   0.2814        -2.6987103      1.5166733     -1.182037     
     31350   0.2814        -2.6911557      1.5212791     -1.1698765    
     31400   0.2814        -2.7051962      1.4882443     -1.216952     
     31450   0.2814        -2.7004552      1.5284657     -1.1719895    
     31500   0.2814        -2.7291474      1.5211599     -1.2079876    
     31550   0.2814        -2.7341078      1.4884304     -1.2456774    
     31600   0.2814        -2.7357925      1.4997001     -1.2360924    
     31650   0.2814        -2.7558275      1.5066471     -1.2491804    
     31700   0.2814        -2.7425589      1.4588475     -1.2837113    
     31750   0.2814        -2.7217268      1.5216978     -1.200029     
     31800   0.2814        -2.7433734      1.4881923     -1.2551811    
     31850   0.2814        -2.7597241      1.4874784     -1.2722456    
     31900   0.2814        -2.7607267      1.4982547     -1.262472     
     31950   0.2814        -2.7568822      1.4958531     -1.2610291    
     32000   0.2814        -2.7335693      1.4970023     -1.236567     
     32050   0.2814        -2.7277052      1.5157212     -1.211984     
     32100   0.2814        -2.7248205      1.4776705     -1.24715      
     32150   0.2814        -2.7292099      1.4913234     -1.2378865    
     32200   0.2814        -2.7190381      1.53659       -1.182448     
     32250   0.2814        -2.7103013      1.4837659     -1.2265354    
     32300   0.2814        -2.7136996      1.4800754     -1.2336242    
     32350   0.2814        -2.7106794      1.4777617     -1.2329178    
     32400   0.2814        -2.7212939      1.5031913     -1.2181026    
     32450   0.2814        -2.6993361      1.4761499     -1.2231862    
     32500   0.2814        -2.7014142      1.521852      -1.1795622    
     32550   0.2814        -2.7022756      1.5234054     -1.1788702    
     32600   0.2814        -2.7127652      1.4947342     -1.218031     
     32650   0.2814        -2.6887078      1.4981092     -1.1905986    
     32700   0.2814        -2.7003638      1.5116942     -1.1886695    
     32750   0.2814        -2.6925585      1.504512      -1.1880465    
     32800   0.2814        -2.6879852      1.468123      -1.2198622    
     32850   0.2814        -2.6994951      1.5077439     -1.1917512    
     32900   0.2814        -2.6882152      1.520199      -1.1680162    
     32950   0.2814        -2.68768        1.4870577     -1.2006223    
     33000   0.2814        -2.69099        1.486323      -1.204667     
     33050   0.2814        -2.6997365      1.4989088     -1.2008277    
     33100   0.2814        -2.7060223      1.5127832     -1.193239     
     33150   0.2814        -2.7128535      1.4873783     -1.2254751    
     33200   0.2814        -2.7129763      1.4785303     -1.234446     
     33250   0.2814        -2.7144009      1.4571562     -1.2572448    
     33300   0.2814        -2.7174443      1.4877354     -1.2297089    
     33350   0.2814        -2.7284966      1.4991051     -1.2293915    
     33400   0.2814        -2.7137627      1.5219599     -1.1918028    
     33450   0.2814        -2.7273097      1.5289604     -1.1983493    
     33500   0.2814        -2.7179776      1.4844538     -1.2335238    
     33550   0.2814        -2.7089059      1.4776481     -1.2312578    
     33600   0.2814        -2.705305       1.5072774     -1.1980276    
     33650   0.2814        -2.7006097      1.5071958     -1.1934138    
     33700   0.2814        -2.7029884      1.4913484     -1.21164      
     33750   0.2814        -2.6834723      1.525598      -1.1578743    
     33800   0.2814        -2.7007267      1.4639425     -1.2367843    
     33850   0.2814        -2.7142822      1.5201959     -1.1940864    
     33900   0.2814        -2.7076388      1.5146324     -1.1930064    
     33950   0.2814        -2.7176646      1.4995198     -1.2181449    
     34000   0.2814        -2.7210042      1.4907208     -1.2302834    
     34050   0.2814        -2.7452498      1.4828414     -1.2624085    
     34100   0.2814        -2.7437061      1.5021465     -1.2415597    
     34150   0.2814        -2.7305489      1.5399434     -1.1906055    
     34200   0.2814        -2.7295709      1.5148673     -1.2147036    
     34250   0.2814        -2.747082       1.4791079     -1.2679741    
     34300   0.2814        -2.7419307      1.4883538     -1.2535769    
     34350   0.2814        -2.7502482      1.4940583     -1.2561899    
     34400   0.2814        -2.7493626      1.4837041     -1.2656585    
     34450   0.2814        -2.759751       1.5521397     -1.2076113    
     34500   0.2814        -2.7554944      1.4794616     -1.2760328    
     34550   0.2814        -2.7483323      1.4968667     -1.2514656    
     34600   0.2814        -2.7312298      1.5467131     -1.1845167    
     34650   0.2814        -2.7342541      1.5192483     -1.2150058    
     34700   0.2814        -2.7172042      1.4872026     -1.2300016    
     34750   0.2814        -2.7164473      1.4785008     -1.2379465    
     34800   0.2814        -2.7356148      1.4822097     -1.2534051    
     34850   0.2814        -2.7338784      1.5071513     -1.2267271    
     34900   0.2814        -2.7313481      1.4694067     -1.2619414    
     34950   0.2814        -2.7517196      1.5146946     -1.2370249    
     35000   0.2814        -2.7561199      1.5120591     -1.2440608    
     35050   0.2814        -2.7419758      1.4705274     -1.2714484    
     35100   0.2814        -2.7669341      1.5202464     -1.2466876    
     35150   0.2814        -2.7562404      1.5069036     -1.2493368    
     35200   0.2814        -2.7830827      1.4593435     -1.3237392    
     35250   0.2814        -2.7698899      1.5365688     -1.2333211    
     35300   0.2814        -2.7768759      1.4969226     -1.2799532    
     35350   0.2814        -2.7924316      1.4989102     -1.2935214    
     35400   0.2814        -2.7927208      1.498938      -1.2937827    
     35450   0.2814        -2.7938942      1.509767      -1.2841272    
     35500   0.2814        -2.772092       1.4724001     -1.2996919    
     35550   0.2814        -2.7768262      1.5061268     -1.2706995    
     35600   0.2814        -2.7853824      1.5354454     -1.249937     
     35650   0.2814        -2.7929456      1.495809      -1.2971366    
     35700   0.2814        -2.7799633      1.4735992     -1.3063641    
     35750   0.2814        -2.7677521      1.494668      -1.2730841    
     35800   0.2814        -2.7862602      1.5168556     -1.2694046    
     35850   0.2814        -2.7850971      1.5529676     -1.2321295    
     35900   0.2814        -2.758925       1.5086828     -1.2502422    
     35950   0.2814        -2.7676533      1.497175      -1.2704782    
     36000   0.2814        -2.7644884      1.51222       -1.2522685    
     36050   0.2814        -2.7727328      1.4859405     -1.2867923    
     36100   0.2814        -2.7644841      1.5319633     -1.2325209    
     36150   0.2814        -2.782285       1.4605597     -1.3217253    
     36200   0.2814        -2.7895507      1.4857285     -1.3038221    
     36250   0.2814        -2.7880839      1.4770882     -1.3109958    
     36300   0.2814        -2.7766189      1.4968358     -1.2797831    
     36350   0.2814        -2.7784674      1.5042928     -1.2741746    
     36400   0.2814        -2.7847993      1.4909308     -1.2938685    
     36450   0.2814        -2.7677632      1.4637741     -1.303989     
     36500   0.2814        -2.7653367      1.5096852     -1.2556515    
     36550   0.2814        -2.7623015      1.4985301     -1.2637715    
     36600   0.2814        -2.7558425      1.5092141     -1.2466284    
     36650   0.2814        -2.7707476      1.5093478     -1.2613998    
     36700   0.2814        -2.7786695      1.5232452     -1.2554243    
     36750   0.2814        -2.7646786      1.5067988     -1.2578798    
     36800   0.2814        -2.7794242      1.4803544     -1.2990697    
     36850   0.2814        -2.799544       1.502417      -1.2971269    
     36900   0.2814        -2.770219       1.5247571     -1.2454619    
     36950   0.2814        -2.7904417      1.4946291     -1.2958127    
     37000   0.2814        -2.7855629      1.4886663     -1.2968967    
     37050   0.2814        -2.7976259      1.539244      -1.258382     
     37100   0.2814        -2.7615113      1.489324      -1.2721872    
     37150   0.2814        -2.7683733      1.5176589     -1.2507144    
     37200   0.2814        -2.7350078      1.4956642     -1.2393437    
     37250   0.2814        -2.7279844      1.4992421     -1.2287422    
     37300   0.2814        -2.7242867      1.5150215     -1.2092652    
     37350   0.2814        -2.7108164      1.5296578     -1.1811586    
     37400   0.2814        -2.7264401      1.5033042     -1.2231359    
     37450   0.2814        -2.7334881      1.483697      -1.2497911    
     37500   0.2814        -2.7137545      1.5005443     -1.2132102    
     37550   0.2814        -2.7090454      1.501216      -1.2078294    
     37600   0.2814        -2.6962529      1.5104263     -1.1858265    
     37650   0.2814        -2.6896214      1.4902055     -1.1994159    
     37700   0.2814        -2.7046235      1.4974859     -1.2071376    
     37750   0.2814        -2.7107228      1.5205839     -1.190139     
     37800   0.2814        -2.6934012      1.4783577     -1.2150435    
     37850   0.2814        -2.7237262      1.5264808     -1.1972454    
     37900   0.2814        -2.7100449      1.4750698     -1.2349751    
     37950   0.2814        -2.7095254      1.5049111     -1.2046143    
     38000   0.2814        -2.7031054      1.5232596     -1.1798458    
     38050   0.2814        -2.6970125      1.4794543     -1.2175581    
     38100   0.2814        -2.6998775      1.4904798     -1.2093977    
     38150   0.2814        -2.7012942      1.517666      -1.1836283    
     38200   0.2814        -2.6853548      1.4838816     -1.2014732    
     38250   0.2814        -2.6993269      1.4974077     -1.2019192    
     38300   0.2814        -2.7106058      1.5112543     -1.1993516    
     38350   0.2814        -2.7253045      1.5158024     -1.2095021    
     38400   0.2814        -2.7214712      1.469515      -1.2519562    
     38450   0.2814        -2.7078183      1.4748698     -1.2329485    
     38500   0.2814        -2.7316192      1.5105319     -1.2210873    
     38550   0.2814        -2.7158312      1.4985669     -1.2172643    
     38600   0.2814        -2.7114365      1.4943958     -1.2170407    
     38650   0.2814        -2.693191       1.5253396     -1.1678515    
     38700   0.2814        -2.6893688      1.4937107     -1.1956582    
     38750   0.2814        -2.7117807      1.4630947     -1.248686     
     38800   0.2814        -2.7057481      1.5044339     -1.2013142    
     38850   0.2814        -2.6923876      1.4919562     -1.2004314    
     38900   0.2814        -2.6876587      1.4916915     -1.1959672    
     38950   0.2814        -2.6952999      1.4995931     -1.1957067    
     39000   0.2814        -2.6801116      1.5219113     -1.1582003    
     39050   0.2814        -2.6842801      1.4808288     -1.2034513    
     39100   0.2814        -2.6810955      1.4929992     -1.1880963    
     39150   0.2814        -2.6852802      1.5085759     -1.1767043    
     39200   0.2814        -2.6912528      1.5010556     -1.1901972    
     39250   0.2814        -2.6947923      1.4885116     -1.2062807    
     39300   0.2814        -2.6898609      1.4984688     -1.1913921    
     39350   0.2814        -2.6929002      1.516039      -1.1768612    
     39400   0.2814        -2.6967747      1.4781968     -1.2185779    
     39450   0.2814        -2.6903118      1.4804992     -1.2098127    
     39500   0.2814        -2.682152       1.4930806     -1.1890714    
     39550   0.2814        -2.6796024      1.4913594     -1.1882431    
     39600   0.2814        -2.6803962      1.5360027     -1.1443936    
     39650   0.2814        -2.6854702      1.4588298     -1.2266404    
     39700   0.2814        -2.6740846      1.5046376     -1.169447     
     39750   0.2814        -2.6748779      1.5177754     -1.1571025    
     39800   0.2814        -2.6623038      1.500838      -1.1614658    
     39850   0.2814        -2.6625955      1.5199311     -1.1426644    
     39900   0.2814        -2.6630083      1.4987606     -1.1642477    
     39950   0.2814        -2.6544919      1.4960715     -1.1584204    
     40000   0.2814        -2.6688652      1.5246121     -1.1442531    
     40050   0.2814        -2.6657976      1.5071939     -1.1586037    
     40100   0.2814        -2.6629352      1.4676306     -1.1953046    
     40150   0.2814        -2.6703668      1.5012232     -1.1691436    
     40200   0.2814        -2.6582341      1.5260975     -1.1321366    
     40250   0.2814        -2.6508089      1.4962906     -1.1545184    
     40300   0.2814        -2.6697858      1.4815109     -1.1882748    
     40350   0.2814        -2.6710798      1.4823535     -1.1887262    
     40400   0.2814        -2.6465158      1.5066188     -1.139897     
     40450   0.2814        -2.6476391      1.4688159     -1.1788232    
     40500   0.2814        -2.6396072      1.4695049     -1.1701023    
     40550   0.2814        -2.6370369      1.4976023     -1.1394346    
     40600   0.2814        -2.6603137      1.507493      -1.1528207    
     40650   0.2814        -2.6587965      1.4832945     -1.175502     
     40700   0.2814        -2.663236       1.5234203     -1.1398156    
     40750   0.2814        -2.6811258      1.5258297     -1.1552961    
     40800   0.2814        -2.6698342      1.4700261     -1.199808     
     40850   0.2814        -2.6855865      1.5564831     -1.1291035    
     40900   0.2814        -2.685984       1.5367849     -1.1491991    
     40950   0.2814        -2.6987302      1.5006452     -1.198085     
     41000   0.2814        -2.6870632      1.4776094     -1.2094537    
     41050   0.2814        -2.6828712      1.5162668     -1.1666044    
     41100   0.2814        -2.6825716      1.4982886     -1.184283     
     41150   0.2814        -2.6777279      1.51899       -1.158738     
     41200   0.2814        -2.6843671      1.4883789     -1.1959881    
     41250   0.2814        -2.6735343      1.4949667     -1.1785676    
     41300   0.2814        -2.6855509      1.4929567     -1.1925942    
     41350   0.2814        -2.6872801      1.4791339     -1.2081462    
     41400   0.2814        -2.6880533      1.5256007     -1.1624526    
     41450   0.2814        -2.687683       1.503748      -1.183935     
     41500   0.2814        -2.6879741      1.5189779     -1.1689962    
     41550   0.2814        -2.6890872      1.5063503     -1.1827369    
     41600   0.2814        -2.6881462      1.5042352     -1.183911     
     41650   0.2814        -2.7035934      1.4925111     -1.2110823    
     41700   0.2814        -2.6966068      1.4734116     -1.2231951    
     41750   0.2814        -2.7019226      1.4956781     -1.2062445    
     41800   0.2814        -2.6965037      1.4970577     -1.199446     
     41850   0.2814        -2.6896984      1.5078665     -1.181832     
     41900   0.2814        -2.6978631      1.4962072     -1.2016558    
     41950   0.2814        -2.6953965      1.467389      -1.2280075    
     42000   0.2814        -2.6948099      1.522755      -1.1720548    
     42050   0.2814        -2.675807       1.4997373     -1.1760697    
     42100   0.2814        -2.6716811      1.5120555     -1.1596256    
     42150   0.2814        -2.6711157      1.5130831     -1.1580325    
     42200   0.2814        -2.6737342      1.5051336     -1.1686006    
     42250   0.2814        -2.6577907      1.4671074     -1.1906833    
     42300   0.2814        -2.6648336      1.4724636     -1.19237      
     42350   0.2814        -2.6540394      1.4951164     -1.158923     
     42400   0.2814        -2.6547625      1.4765952     -1.1781672    
     42450   0.2814        -2.661443       1.5190544     -1.1423886    
     42500   0.2814        -2.6530774      1.5065618     -1.1465156    
     42550   0.2814        -2.6650994      1.5069722     -1.1581272    
     42600   0.2814        -2.6487807      1.492631      -1.1561497    
     42650   0.2814        -2.6560338      1.4592035     -1.1968304    
     42700   0.2814        -2.6578996      1.5209156     -1.136984     
     42750   0.2814        -2.6763479      1.5162213     -1.1601266    
     42800   0.2814        -2.6970042      1.548247      -1.1487572    
     42850   0.2814        -2.6968792      1.475825      -1.2210541    
     42900   0.2814        -2.7121224      1.4886375     -1.2234848    
     42950   0.2814        -2.6968488      1.5400436     -1.1568052    
     43000   0.2814        -2.7041219      1.5054715     -1.1986504    
     43050   0.2814        -2.7162277      1.4877023     -1.2285254    
     43100   0.2814        -2.6988696      1.5248218     -1.1740477    
     43150   0.2814        -2.7031302      1.5185144     -1.1846158    
     43200   0.2814        -2.723073       1.5188571     -1.2042159    
     43250   0.2814        -2.7080813      1.5159924     -1.1920889    
     43300   0.2814        -2.70113        1.4982464     -1.2028836    
     43350   0.2814        -2.6983173      1.4785776     -1.2197397    
     43400   0.2814        -2.7066685      1.5007932     -1.2058754    
     43450   0.2814        -2.7120397      1.5061985     -1.2058412    
     43500   0.2814        -2.7034641      1.4958961     -1.207568     
     43550   0.2814        -2.6838882      1.4941027     -1.1897855    
     43600   0.2814        -2.6666218      1.5213844     -1.1452374    
     43650   0.2814        -2.6923992      1.5065462     -1.185853     
     43700   0.2814        -2.7160802      1.4826923     -1.2333879    
     43750   0.2814        -2.6991538      1.5037107     -1.1954431    
     43800   0.2814        -2.7148036      1.4985396     -1.2162641    
     43850   0.2814        -2.7237759      1.5226953     -1.2010806    
     43900   0.2814        -2.7249144      1.4917381     -1.2331763    
     43950   0.2814        -2.7217491      1.4943676     -1.2273815    
     44000   0.2814        -2.7019529      1.5146608     -1.187292     
     44050   0.2814        -2.692309       1.4813295     -1.2109794    
     44100   0.2814        -2.6899021      1.4998941     -1.190008     
     44150   0.2814        -2.7000865      1.4834362     -1.2166504    
     44200   0.2814        -2.7040044      1.5068576     -1.1971467    
     44250   0.2814        -2.7161839      1.4749987     -1.2411852    
     44300   0.2814        -2.7001538      1.5040006     -1.1961532    
     44350   0.2814        -2.6896504      1.5161257     -1.1735247    
     44400   0.2814        -2.6811484      1.477201      -1.2039475    
     44450   0.2814        -2.6470863      1.5103407     -1.1367456    
     44500   0.2814        -2.6428872      1.4992283     -1.1436589    
     44550   0.2814        -2.6768327      1.4922466     -1.1845861    
     44600   0.2814        -2.6770898      1.4733566     -1.2037332    
     44650   0.2814        -2.6783416      1.502037      -1.1763047    
     44700   0.2814        -2.6762326      1.4634994     -1.2127332    
     44750   0.2814        -2.6735369      1.5083795     -1.1651574    
     44800   0.2814        -2.6952825      1.4859024     -1.2093801    
     44850   0.2814        -2.6679112      1.4821314     -1.1857798    
     44900   0.2814        -2.6717085      1.5002794     -1.1714291    
     44950   0.2814        -2.6852768      1.53766       -1.1476168    
     45000   0.2814        -2.6637763      1.4920453     -1.1717309    
     45050   0.2814        -2.672016       1.4814365     -1.1905796    
     45100   0.2814        -2.6852137      1.5026754     -1.1825384    
     45150   0.2814        -2.6660137      1.5043487     -1.161665     
     45200   0.2814        -2.6745989      1.5114425     -1.1631563    
     45250   0.2814        -2.6727474      1.4850129     -1.1877345    
     45300   0.2814        -2.6615287      1.476995      -1.1845337    
     45350   0.2814        -2.6603352      1.4907175     -1.1696177    
     45400   0.2814        -2.6683299      1.5279276     -1.1404023    
     45450   0.2814        -2.6565812      1.4981502     -1.158431     
     45500   0.2814        -2.655308       1.4297979     -1.2255101    
     45550   0.2814        -2.6295228      1.4917108     -1.137812     
     45600   0.2814        -2.6393645      1.5193097     -1.1200549    
     45650   0.2814        -2.6438085      1.5073068     -1.1365017    
     45700   0.2814        -2.6456877      1.507112      -1.1385757    
     45750   0.2814        -2.6669959      1.5132399     -1.1537559    
     45800   0.2814        -2.6530557      1.5230747     -1.129981     
     45850   0.2814        -2.6754473      1.5085376     -1.1669097    
     45900   0.2814        -2.6397191      1.5135479     -1.1261712    
     45950   0.2814        -2.6534129      1.4614838     -1.1919291    
     46000   0.2814        -2.656274       1.4730029     -1.183271     
     46050   0.2814        -2.6454335      1.5022514     -1.1431821    
     46100   0.2814        -2.6547543      1.5123197     -1.1424346    
     46150   0.2814        -2.6480052      1.4881838     -1.1598214    
     46200   0.2814        -2.6427317      1.5104665     -1.1322652    
     46250   0.2814        -2.6632296      1.4929286     -1.170301     
     46300   0.2814        -2.6660312      1.5336066     -1.1324246    
     46350   0.2814        -2.6555035      1.501838      -1.1536655    
     46400   0.2814        -2.669051       1.4809606     -1.1880904    
     46450   0.2814        -2.678412       1.5128053     -1.1656067    
     46500   0.2814        -2.667246       1.4776271     -1.1896188    
     46550   0.2814        -2.6711648      1.4851663     -1.1859985    
     46600   0.2814        -2.685621       1.5168071     -1.1688139    
     46650   0.2814        -2.6960044      1.5070466     -1.1889578    
     46700   0.2814        -2.6760169      1.4719122     -1.2041047    
     46750   0.2814        -2.6914468      1.5140432     -1.1774036    
     46800   0.2814        -2.6777767      1.5395446     -1.138232     
     46850   0.2814        -2.6728323      1.5164302     -1.1564021    
     46900   0.2814        -2.6732766      1.4926798     -1.1805969    
     46950   0.2814        -2.7013101      1.4600937     -1.2412163    
     47000   0.2814        -2.6803144      1.4646255     -1.2156889    
     47050   0.2814        -2.6677403      1.5312121     -1.1365281    
     47100   0.2814        -2.6902618      1.4962697     -1.1939921    
     47150   0.2814        -2.6908814      1.4899445     -1.2009369    
     47200   0.2814        -2.6745082      1.4973464     -1.1771618    
     47250   0.2814        -2.6692245      1.4904119     -1.1788126    
     47300   0.2814        -2.6854157      1.4957038     -1.1897119    
     47350   0.2814        -2.6799903      1.5227232     -1.1572671    
     47400   0.2814        -2.685787       1.4863868     -1.1994003    
     47450   0.2814        -2.6974153      1.4657111     -1.2317042    
     47500   0.2814        -2.7017614      1.5139103     -1.1878511    
     47550   0.2814        -2.6942914      1.5255349     -1.1687565    
     47600   0.2814        -2.7022685      1.5101971     -1.1920713    
     47650   0.2814        -2.7170416      1.5070069     -1.2100347    
     47700   0.2814        -2.7108684      1.4862923     -1.2245761    
     47750   0.2814        -2.722114       1.5097098     -1.2124042    
     47800   0.2814        -2.7162441      1.5052325     -1.2110116    
     47850   0.2814        -2.7003135      1.5183239     -1.1819896    
     47900   0.2814        -2.7224579      1.4896166     -1.2328413    
     47950   0.2814        -2.7122314      1.4999705     -1.2122609    
     48000   0.2814        -2.7013755      1.5159951     -1.1853804    
     48050   0.2814        -2.6982849      1.5292429     -1.169042     
     48100   0.2814        -2.6951547      1.4731262     -1.2220285    
     48150   0.2814        -2.7126526      1.5118323     -1.2008203    
     48200   0.2814        -2.7132709      1.4805033     -1.2327677    
     48250   0.2814        -2.7093761      1.4851004     -1.2242756    
     48300   0.2814        -2.7296649      1.4764231     -1.2532418    
     48350   0.2814        -2.7197275      1.5126101     -1.2071174    
     48400   0.2814        -2.7072785      1.4613968     -1.2458816    
     48450   0.2814        -2.7245548      1.469719      -1.2548358    
     48500   0.2814        -2.7209803      1.5308607     -1.1901196    
     48550   0.2814        -2.7221033      1.5471475     -1.1749559    
     48600   0.2814        -2.6959732      1.4921807     -1.2037925    
     48650   0.2814        -2.7066144      1.4901115     -1.2165028    
     48700   0.2814        -2.7092399      1.5198366     -1.1894033    
     48750   0.2814        -2.7345141      1.5345738     -1.1999402    
     48800   0.2814        -2.7234668      1.5007576     -1.2227093    
     48850   0.2814        -2.7300772      1.4748862     -1.255191     
     48900   0.2814        -2.7368341      1.4876719     -1.2491621    
     48950   0.2814        -2.7387697      1.5105724     -1.2281972    
     49000   0.2814        -2.7200097      1.5035103     -1.2164995    
     49050   0.2814        -2.7284925      1.4828271     -1.2456654    
     49100   0.2814        -2.7196332      1.4864692     -1.233164     
     49150   0.2814        -2.7354029      1.5065492     -1.2288537    
     49200   0.2814        -2.7303502      1.484652      -1.2456982    
     49250   0.2814        -2.7529997      1.4800323     -1.2729675    
     49300   0.2814        -2.7462772      1.5068012     -1.2394759    
     49350   0.2814        -2.7669922      1.4745041     -1.2924881    
     49400   0.2814        -2.7423765      1.4918979     -1.2504786    
     49450   0.2814        -2.7506106      1.5182726     -1.2323379    
     49500   0.2814        -2.748321       1.4413453     -1.3069757    
     49550   0.2814        -2.7624921      1.4689165     -1.2935756    
     49600   0.2814        -2.748476       1.5123266     -1.2361494    
     49650   0.2814        -2.7574442      1.5049665     -1.2524777    
     49700   0.2814        -2.7487183      1.4579139     -1.2908043    
     49750   0.2814        -2.7421265      1.5090196     -1.2331069    
     49800   0.2814        -2.7598379      1.5111359     -1.248702     
     49850   0.2814        -2.7545501      1.4857383     -1.2688118    
     49900   0.2814        -2.7587032      1.4799392     -1.2787641    
     49950   0.2814        -2.7569445      1.4980363     -1.2589082    
     50000   0.2814        -2.7613917      1.4797335     -1.2816581    
     50050   0.2814        -2.7535311      1.5060841     -1.247447     
     50100   0.2814        -2.7458624      1.5327602     -1.2131022    
     50150   0.2814        -2.7487752      1.4718052     -1.27697      
     50200   0.2814        -2.750129       1.4917659     -1.2583631    
     50250   0.2814        -2.7412546      1.497833      -1.2434216    
     50300   0.2814        -2.7357435      1.5240285     -1.211715     
     50350   0.2814        -2.7384349      1.5300909     -1.208344     
     50400   0.2814        -2.7395543      1.5023188     -1.2372355    
     50450   0.2814        -2.742377       1.4758551     -1.266522     
     50500   0.2814        -2.752772       1.4645256     -1.2882465    
     50550   0.2814        -2.7453222      1.4723125     -1.2730097    
     50600   0.2814        -2.7443114      1.4577176     -1.2865938    
     50650   0.2814        -2.7694543      1.4630656     -1.3063887    
     50700   0.2814        -2.7539361      1.4618508     -1.2920852    
     50750   0.2814        -2.756432       1.4967332     -1.2596988    
     50800   0.2814        -2.7141906      1.5002875     -1.2139031    
     50850   0.2814        -2.7504886      1.5014674     -1.2490212    
     50900   0.2814        -2.7277527      1.4724235     -1.2553293    
     50950   0.2814        -2.7291627      1.4934897     -1.235673     
     51000   0.2814        -2.7156014      1.5276799     -1.1879215    
     51050   0.2814        -2.7320709      1.505569      -1.2265019    
     51100   0.2814        -2.738701       1.5325191     -1.2061819    
     51150   0.2814        -2.7345137      1.4989284     -1.2355853    
     51200   0.2814        -2.7531819      1.5006942     -1.2524877    
[...]
    107150   0.2814        -2.9318175      1.4980128     -1.4338046    
    107200   0.2814        -2.9453338      1.4902123     -1.4551216    
    107250   0.2814        -2.946929       1.5015924     -1.4453367    
    107300   0.2814        -2.9328972      1.5136924     -1.4192048    
    107350   0.2814        -2.9516151      1.4919614     -1.4596536    
    107400   0.2814        -2.951695       1.4924496     -1.4592454    
    107450   0.2814        -2.935468       1.4963948     -1.4390732    
    107500   0.2814        -2.9549278      1.5386653     -1.4162625    
    107550   0.2814        -2.9546445      1.4915849     -1.4630596    
    107600   0.2814        -2.9546151      1.4973645     -1.4572506    
    107650   0.2814        -2.9472306      1.4695544     -1.4776761    
    107700   0.2814        -2.9496531      1.5304233     -1.4192297    
    107750   0.2814        -2.9329706      1.5229617     -1.4100089    
    107800   0.2814        -2.9335042      1.5394025     -1.3941018    
    107850   0.2814        -2.9363276      1.5191698     -1.4171578    
    107900   0.2814        -2.9523367      1.4969466     -1.4553901    
    107950   0.2814        -2.9420672      1.5324454     -1.4096218    
    108000   0.2814        -2.9545113      1.5003694     -1.454142     
    108050   0.2814        -2.9857633      1.4703782     -1.5153851    
    108100   0.2814        -2.9858294      1.510545      -1.4752844    
    108150   0.2814        -2.9617643      1.4936133     -1.468151     
    108200   0.2814        -2.9731671      1.4653046     -1.5078626    
    108250   0.2814        -2.9492282      1.4638818     -1.4853464    
    108300   0.2814        -2.9486767      1.4804484     -1.4682283    
    108350   0.2814        -2.9505292      1.4983247     -1.4522044    
    108400   0.2814        -2.9635614      1.4870496     -1.4765119    
    108450   0.2814        -2.9560224      1.4766848     -1.4793376    
    108500   0.2814        -2.947763       1.5330236     -1.4147395    
    108550   0.2814        -2.9599893      1.5166279     -1.4433614    
    108600   0.2814        -2.9547456      1.521148      -1.4335976    
    108650   0.2814        -2.9516431      1.4731381     -1.478505     
    108700   0.2814        -2.9852351      1.4794037     -1.5058315    
    108750   0.2814        -2.9707752      1.4986264     -1.4721488    
    108800   0.2814        -2.972115       1.5114253     -1.4606897    
    108850   0.2814        -2.9666693      1.5086011     -1.4580682    
    108900   0.2814        -2.9678492      1.5103551     -1.4574942    
    108950   0.2814        -2.957129       1.4869325     -1.4701965    
    109000   0.2814        -2.9522831      1.5245999     -1.4276832    
    109050   0.2814        -2.951686       1.5266428     -1.4250432    
    109100   0.2814        -2.9463459      1.5129437     -1.4334022    
    109150   0.2814        -2.9390111      1.4833205     -1.4556906    
    109200   0.2814        -2.9445071      1.484674      -1.4598331    
    109250   0.2814        -2.955361       1.4906382     -1.4647227    
    109300   0.2814        -2.9465336      1.5138501     -1.4326835    
    109350   0.2814        -2.9379786      1.5419886     -1.39599      
    109400   0.2814        -2.9254727      1.5242341     -1.4012386    
    109450   0.2814        -2.9232185      1.4987368     -1.4244818    
    109500   0.2814        -2.9435639      1.4862115     -1.4573524    
    109550   0.2814        -2.9385604      1.5216238     -1.4169367    
    109600   0.2814        -2.953205       1.5075484     -1.4456567    
    109650   0.2814        -2.9523328      1.4908847     -1.4614481    
    109700   0.2814        -2.9408606      1.4905147     -1.4503459    
    109750   0.2814        -2.9436175      1.5275283     -1.4160892    
    109800   0.2814        -2.9574684      1.5386854     -1.418783     
    109850   0.2814        -2.9565007      1.5311442     -1.4253565    
    109900   0.2814        -2.9342182      1.4876124     -1.4466058    
    109950   0.2814        -2.9425815      1.4996207     -1.4429608    
    110000   0.2814        -2.9226743      1.5052028     -1.4174716    
    110050   0.2814        -2.927365       1.5056762     -1.4216888    
    110100   0.2814        -2.9306168      1.5416973     -1.3889195    
    110150   0.2814        -2.9213062      1.4781923     -1.4431139    
    110200   0.2814        -2.9311473      1.4866897     -1.4444576    
    110250   0.2814        -2.9193235      1.5010614     -1.4182621    
    110300   0.2814        -2.9231579      1.476112      -1.4470459    
    110350   0.2814        -2.9216913      1.5104593     -1.411232     
    110400   0.2814        -2.9086439      1.5295498     -1.3790941    
    110450   0.2814        -2.8980623      1.4556424     -1.4424199    
    110500   0.2814        -2.9161855      1.5359446     -1.3802408    
    110550   0.2814        -2.9132162      1.4969687     -1.4162475    
    110600   0.2814        -2.936508       1.4574168     -1.4790911    
    110650   0.2814        -2.9459424      1.4901543     -1.4557881    
    110700   0.2814        -2.9430764      1.5425696     -1.4005069    
    110750   0.2814        -2.9407088      1.5149362     -1.4257727    
    110800   0.2814        -2.9356013      1.4972131     -1.4383882    
    110850   0.2814        -2.9536611      1.4844677     -1.4691933    
    110900   0.2814        -2.950531       1.5341147     -1.4164163    
    110950   0.2814        -2.9352473      1.5185681     -1.4166793    
    111000   0.2814        -2.923503       1.494411      -1.429092     
    111050   0.2814        -2.9327776      1.488697      -1.4440807    
    111100   0.2814        -2.9371841      1.5096301     -1.427554     
    111150   0.2814        -2.9308809      1.4983846     -1.4324963    
    111200   0.2814        -2.9388775      1.4862637     -1.4526138    
    111250   0.2814        -2.9341708      1.4883015     -1.4458693    
    111300   0.2814        -2.9485929      1.4948028     -1.4537901    
    111350   0.2814        -2.9448227      1.4813264     -1.4634964    
    111400   0.2814        -2.9538726      1.4832686     -1.470604     
    111450   0.2814        -2.9615137      1.502354      -1.4591597    
    111500   0.2814        -2.9391319      1.5032175     -1.4359144    
    111550   0.2814        -2.9558233      1.4662044     -1.4896189    
    111600   0.2814        -2.9801754      1.472452      -1.5077234    
    111650   0.2814        -2.9725899      1.5027308     -1.4698591    
    111700   0.2814        -2.9522856      1.5034055     -1.4488801    
    111750   0.2814        -2.9483796      1.4629348     -1.4854448    
    111800   0.2814        -2.9302755      1.510392      -1.4198836    
    111850   0.2814        -2.9389229      1.4847594     -1.4541635    
    111900   0.2814        -2.9412154      1.4725225     -1.4686929    
    111950   0.2814        -2.9231764      1.4914921     -1.4316844    
    112000   0.2814        -2.9481551      1.5077722     -1.4403829    
    112050   0.2814        -2.9629879      1.5205671     -1.4424208    
    112100   0.2814        -2.9689598      1.5076914     -1.4612684    
    112150   0.2814        -2.9686461      1.4746958     -1.4939503    
    112200   0.2814        -2.9528162      1.5039775     -1.4488387    
    112250   0.2814        -2.9511554      1.4911189     -1.4600365    
    112300   0.2814        -2.9575302      1.5105632     -1.4469669    
    112350   0.2814        -2.9426853      1.4857285     -1.4569568    
    112400   0.2814        -2.9725825      1.4794818     -1.4931007    
    112450   0.2814        -2.9497399      1.4910205     -1.4587195    
    112500   0.2814        -2.942845       1.4875813     -1.4552637    
    112550   0.2814        -2.9475093      1.5129642     -1.4345451    
    112600   0.2814        -2.9643436      1.4952121     -1.4691316    
    112650   0.2814        -2.9532099      1.5278836     -1.4253263    
    112700   0.2814        -2.9465625      1.5254096     -1.4211529    
    112750   0.2814        -2.9567671      1.486519      -1.4702481    
    112800   0.2814        -2.9527282      1.4954194     -1.4573088    
    112850   0.2814        -2.9508437      1.5054174     -1.4454263    
    112900   0.2814        -2.9572111      1.5146278     -1.4425833    
    112950   0.2814        -2.9499898      1.4985392     -1.4514506    
    113000   0.2814        -2.9557451      1.5037551     -1.45199      
    113050   0.2814        -2.9724233      1.4961114     -1.4763119    
    113100   0.2814        -2.975806       1.4766293     -1.4991766    
    113150   0.2814        -2.9747708      1.4907048     -1.484066     
    113200   0.2814        -2.9726868      1.5386501     -1.4340367    
    113250   0.2814        -2.9755334      1.5099403     -1.465593     
    113300   0.2814        -2.9765499      1.4828351     -1.4937147    
    113350   0.2814        -2.9507939      1.5213139     -1.42948      
    113400   0.2814        -2.9456142      1.5178408     -1.4277734    
    113450   0.2814        -2.9355242      1.5261559     -1.4093683    
    113500   0.2814        -2.9369514      1.5580738     -1.3788776    
    113550   0.2814        -2.9244236      1.4570198     -1.4674038    
    113600   0.2814        -2.9340914      1.4931847     -1.4409067    
    113650   0.2814        -2.9217521      1.5001401     -1.421612     
    113700   0.2814        -2.9417986      1.4971434     -1.4446552    
    113750   0.2814        -2.9406555      1.5297599     -1.4108957    
    113800   0.2814        -2.9468975      1.4706778     -1.4762198    
    113850   0.2814        -2.9283822      1.4554347     -1.4729475    
    113900   0.2814        -2.9451995      1.4662581     -1.4789414    
    113950   0.2814        -2.9482502      1.4733306     -1.4749196    
    114000   0.2814        -2.9323084      1.5274488     -1.4048596    
    114050   0.2814        -2.9102413      1.5346975     -1.3755438    
    114100   0.2814        -2.9133813      1.5309209     -1.3824604    
    114150   0.2814        -2.929304       1.4852489     -1.4440551    
    114200   0.2814        -2.9255415      1.5103404     -1.4152011    
    114250   0.2814        -2.9347733      1.5140076     -1.4207657    
    114300   0.2814        -2.9188434      1.4956674     -1.423176     
    114350   0.2814        -2.9219298      1.4999694     -1.4219604    
    114400   0.2814        -2.9258557      1.4639369     -1.4619189    
    114450   0.2814        -2.9021846      1.4812806     -1.4209039    
    114500   0.2814        -2.9135098      1.5210223     -1.3924875    
    114550   0.2814        -2.9092857      1.479607      -1.4296787    
    114600   0.2814        -2.9036927      1.4813897     -1.422303     
    114650   0.2814        -2.9142601      1.5152255     -1.3990346    
    114700   0.2814        -2.9157568      1.5125119     -1.403245     
    114750   0.2814        -2.8988397      1.5008498     -1.3979899    
    114800   0.2814        -2.9168905      1.4974759     -1.4194146    
    114850   0.2814        -2.8984236      1.5129029     -1.3855206    
    114900   0.2814        -2.8942443      1.4825448     -1.4116995    
    114950   0.2814        -2.9061282      1.5087031     -1.3974251    
    115000   0.2814        -2.9032588      1.5275018     -1.375757     
    115050   0.2814        -2.9009143      1.5304939     -1.3704204    
    115100   0.2814        -2.8938271      1.4724813     -1.4213457    
    115150   0.2814        -2.8887563      1.4981395     -1.3906168    
    115200   0.2814        -2.9143785      1.5236823     -1.3906962    
    115250   0.2814        -2.9280803      1.5076227     -1.4204576    
    115300   0.2814        -2.9210593      1.5295689     -1.3914904    
    115350   0.2814        -2.9253324      1.5091167     -1.4162157    
    115400   0.2814        -2.9309362      1.4748988     -1.4560374    
    115450   0.2814        -2.915086       1.5134345     -1.4016514    
    115500   0.2814        -2.9191399      1.4688055     -1.4503344    
    115550   0.2814        -2.9108408      1.4743991     -1.4364417    
    115600   0.2814        -2.8791334      1.533275      -1.3458584    
    115650   0.2814        -2.8757115      1.5228882     -1.3528233    
    115700   0.2814        -2.8762186      1.4901664     -1.3860522    
    115750   0.2814        -2.8638105      1.5298035     -1.334007     
    115800   0.2814        -2.8683688      1.5008996     -1.3674692    
    115850   0.2814        -2.8688504      1.4818981     -1.3869522    
    115900   0.2814        -2.8604603      1.5016401     -1.3588202    
    115950   0.2814        -2.8744288      1.508738      -1.3656908    
    116000   0.2814        -2.9035578      1.4904575     -1.4131003    
    116050   0.2814        -2.8833167      1.4951097     -1.388207     
    116100   0.2814        -2.8721016      1.4724411     -1.3996604    
    116150   0.2814        -2.8736419      1.5303005     -1.3433414    
    116200   0.2814        -2.8783919      1.522995      -1.3553969    
    116250   0.2814        -2.8817471      1.4794716     -1.4022755    
    116300   0.2814        -2.8905178      1.5099014     -1.3806164    
    116350   0.2814        -2.8797419      1.4709786     -1.4087633    
    116400   0.2814        -2.8784013      1.507512      -1.3708893    
    116450   0.2814        -2.8711601      1.5007222     -1.3704379    
    116500   0.2814        -2.8879475      1.4985705     -1.389377     
    116550   0.2814        -2.8967649      1.488719      -1.4080459    
    116600   0.2814        -2.897184       1.4953008     -1.4018832    
    116650   0.2814        -2.8879331      1.5486696     -1.3392635    
    116700   0.2814        -2.8800366      1.4929523     -1.3870843    
    116750   0.2814        -2.8920142      1.5361163     -1.3558979    
    116800   0.2814        -2.900963       1.5306934     -1.3702695    
    116850   0.2814        -2.9035774      1.4886275     -1.41495      
    116900   0.2814        -2.9052762      1.482066      -1.4232103    
    116950   0.2814        -2.9210456      1.5174247     -1.4036209    
    117000   0.2814        -2.9090318      1.495746      -1.4132857    
    117050   0.2814        -2.9258558      1.4989147     -1.426941     
    117100   0.2814        -2.9265359      1.5132166     -1.4133193    
    117150   0.2814        -2.9116659      1.5342334     -1.3774325    
    117200   0.2814        -2.932808       1.468952      -1.463856     
    117250   0.2814        -2.9263658      1.484888      -1.4414778    
    117300   0.2814        -2.9323104      1.5022089     -1.4301016    
    117350   0.2814        -2.9016542      1.5258582     -1.375796     
    117400   0.2814        -2.8926902      1.4485248     -1.4441654    
    117450   0.2814        -2.9129407      1.5165318     -1.3964088    
    117500   0.2814        -2.9048515      1.4973417     -1.4075099    
    117550   0.2814        -2.9016363      1.5210066     -1.3806298    
    117600   0.2814        -2.8996311      1.4884021     -1.411229     
    117650   0.2814        -2.9186012      1.5136201     -1.4049811    
    117700   0.2814        -2.9030996      1.5065712     -1.3965284    
    117750   0.2814        -2.9040675      1.475787      -1.4282805    
    117800   0.2814        -2.9079807      1.5268857     -1.381095     
    117850   0.2814        -2.9294961      1.4981607     -1.4313353    
    117900   0.2814        -2.9137532      1.4662666     -1.4474866    
    117950   0.2814        -2.9160894      1.4794483     -1.4366411    
    118000   0.2814        -2.921978       1.4704488     -1.4515292    
    118050   0.2814        -2.9023645      1.5282414     -1.3741231    
    118100   0.2814        -2.8955351      1.4676311     -1.427904     
    118150   0.2814        -2.9287157      1.4788682     -1.4498475    
    118200   0.2814        -2.9303418      1.5324062     -1.3979356    
    118250   0.2814        -2.9062022      1.5310363     -1.3751659    
    118300   0.2814        -2.8926521      1.4977575     -1.3948947    
    118350   0.2814        -2.9036987      1.4723778     -1.431321     
    118400   0.2814        -2.9132739      1.5121023     -1.4011716    
    118450   0.2814        -2.91988        1.4662836     -1.4535964    
    118500   0.2814        -2.9301789      1.5218335     -1.4083454    
    118550   0.2814        -2.9308974      1.5098614     -1.421036     
    118600   0.2814        -2.9222806      1.4917833     -1.4304974    
    118650   0.2814        -2.9162581      1.4851626     -1.4310955    
    118700   0.2814        -2.9241302      1.521864      -1.4022662    
    118750   0.2814        -2.9097024      1.4826496     -1.4270528    
    118800   0.2814        -2.9106519      1.5057194     -1.4049325    
    118850   0.2814        -2.9108245      1.4780125     -1.432812     
    118900   0.2814        -2.9200238      1.5173299     -1.4026939    
    118950   0.2814        -2.9329324      1.4816016     -1.4513308    
    119000   0.2814        -2.9247398      1.5080454     -1.4166944    
    119050   0.2814        -2.9246102      1.4813099     -1.4433004    
    119100   0.2814        -2.9144176      1.5177829     -1.3966347    
    119150   0.2814        -2.908814       1.4685579     -1.4402562    
    119200   0.2814        -2.9259257      1.4585709     -1.4673548    
    119250   0.2814        -2.9134724      1.5183383     -1.3951341    
    119300   0.2814        -2.8952144      1.4891687     -1.4060457    
    119350   0.2814        -2.8923109      1.5105355     -1.3817755    
    119400   0.2814        -2.9016135      1.4927105     -1.408903     
    119450   0.2814        -2.9188666      1.498322      -1.4205446    
    119500   0.2814        -2.9306074      1.4808742     -1.4497331    
    119550   0.2814        -2.925848       1.4964911     -1.429357     
    119600   0.2814        -2.9100729      1.4942843     -1.4157886    
    119650   0.2814        -2.9229831      1.50596       -1.4170231    
    119700   0.2814        -2.9329946      1.4870671     -1.4459275    
    119750   0.2814        -2.9235903      1.5033605     -1.4202298    
    119800   0.2814        -2.9152889      1.4861848     -1.4291041    
    119850   0.2814        -2.912755       1.4958454     -1.4169095    
    119900   0.2814        -2.9097413      1.4543316     -1.4554097    
    119950   0.2814        -2.9082172      1.5138166     -1.3944006    
    120000   0.2814        -2.8785435      1.5070311     -1.3715124    
Loop time of 374.248 on 1 procs for 100000 steps with 4000 atoms

Performance: 115431.430 tau/day, 267.202 timesteps/s, 1.069 Matom-step/s
95.3% CPU use with 1 MPI tasks x no OpenMP threads

MPI task timing breakdown:
Section |  min time  |  avg time  |  max time  |%varavg| %total
---------------------------------------------------------------
Pair    | 220.29     | 220.29     | 220.29     |   0.0 | 58.86
Neigh   | 124.02     | 124.02     | 124.02     |   0.0 | 33.14
Comm    | 6.2361     | 6.2361     | 6.2361     |   0.0 |  1.67
Output  | 6.013      | 6.013      | 6.013      |   0.0 |  1.61
Modify  | 15.106     | 15.106     | 15.106     |   0.0 |  4.04
Other   |            | 2.586      |            |       |  0.69

Nlocal:           4000 ave        4000 max        4000 min
Histogram: 1 0 0 0 0 0 0 0 0 0
Nghost:           3384 ave        3384 max        3384 min
Histogram: 1 0 0 0 0 0 0 0 0 0
Neighs:          79274 ave       79274 max       79274 min
Histogram: 1 0 0 0 0 0 0 0 0 0

Total # of neighbors = 79274
Ave neighs/atom = 19.8185
Neighbor list builds = 14041
Dangerous builds = 177
Total wall time: 0:08:00
